<LesHouchesEvents version="3.0">
<header>
<!--
#*********************************************************************
#                                                                    *
#                        MadGraph5_aMC@NLO                           *
#                                                                    *
#                           Going Beyond                             *
#                                                                    *
#                   http://madgraph.hep.uiuc.edu                     *
#                   http://madgraph.phys.ucl.ac.be                   *
#                   http://amcatnlo.cern.ch                          *
#                                                                    *
#                     The MadGraph5_aMC@NLO team                     *
#                                                                    *
#....................................................................*
#                                                                    *
# This file contains all the information necessary to reproduce      *
# the events generated:                                              *
#                                                                    *
# 1. software version                                                *
# 2. proc_card          : code generation info including model       *
# 3. param_card         : model primary parameters in the LH format  *
# 4. run_card           : running parameters (collider and cuts)     *
# 5. pythia_card        : present only if pythia has been run        *
# 6. pgs_card           : present only if pgs has been run           *
# 7. delphes_cards      : present only if delphes has been run       *
#                                                                    *
#                                                                    *
#*********************************************************************
-->
<MGVersion>
#2.6.5
</MGVersion>
<MG5ProcCard>
<![CDATA[
#************************************************************
#*                     MadGraph5_aMC@NLO                    *
#*                                                          *
#*                *                       *                 *
#*                  *        * *        *                   *
#*                    * * * * 5 * * * *                     *
#*                  *        * *        *                   *
#*                *                       *                 *
#*                                                          *
#*                                                          *
#*         VERSION 2.6.5                 2018-02-03         *
#*                                                          *
#*    The MadGraph5_aMC@NLO Development Team - Find us at   *
#*    https://server06.fynu.ucl.ac.be/projects/madgraph     *
#*                                                          *
#************************************************************
#*                                                          *
#*               Command File for MadGraph5_aMC@NLO         *
#*                                                          *
#*     run as ./bin/mg5_aMC  filename                       *
#*                                                          *
#************************************************************
set default_unset_couplings 99
set group_subprocesses Auto
set ignore_six_quark_processes False
set loop_optimized_output True
set loop_color_flows False
set gauge unitary
set complex_mass_scheme False
set max_npoint_for_channel 0
import model sm-ckm_no_b_mass
define p = g u c d s u~ c~ d~ s~
define j = g u c d s u~ c~ d~ s~
define l+ = e+ mu+
define l- = e- mu-
define vl = ve vm vt
define vl~ = ve~ vm~ vt~
define p = 21 2 4 1 3 -2 -4 -1 -3 5 -5 # pass to 5 flavors
define j = p
define l+ = e+ mu+ ta+
define l- = e- mu- ta-
generate p p > l+ l- / h @0
add process p p > l+ l- j / h @1
add process p p > l+ l- j j / h @2
output dy012j_T -nojpeg
]]>
</MG5ProcCard>
<MGProcCard>
<![CDATA[
#*********************************************************************
#                        MadGraph/MadEvent                           *
#                   http://madgraph.hep.uiuc.edu                     *
#                                                                    *
#                          proc_card.dat                             *
#*********************************************************************
#                                                                    *
#            This Files is generated by MADGRAPH 5                   *
#                                                                    *
# WARNING: This Files is generated for MADEVENT (compatibility issue)*
#          This files is NOT a valid MG4 proc_card.dat               *
#          Running this in MG4 will NEVER reproduce the result of MG5*
#                                                                    *
#*********************************************************************
#*********************************************************************
# Process(es) requested : mg2 input                                  *
#*********************************************************************
# Begin PROCESS # This is TAG. Do not modify this line
p p > l+ l- / h @0           #Process
# Be carefull the coupling are here in MG5 convention
          
end_coup           # End the couplings input

done               # this tells MG there are no more procs
# End PROCESS  # This is TAG. Do not modify this line
#*********************************************************************
# Model information                                                  *
#*********************************************************************
# Begin MODEL  # This is TAG. Do not modify this line
sm-ckm_no_b_mass
# End   MODEL  # This is TAG. Do not modify this line
#*********************************************************************
# Start multiparticle definitions                                    *
#*********************************************************************
# Begin MULTIPARTICLES # This is TAG. Do not modify this line

# End  MULTIPARTICLES # This is TAG. Do not modify this line
]]>
</MGProcCard>
<MGRunCard>
<![CDATA[
#*********************************************************************
#                       MadGraph5_aMC@NLO                            *
#                                                                    *
#                     run_card.dat MadEvent                          *
#                                                                    *
#  This file is used to set the parameters of the run.               *
#                                                                    *
#  Some notation/conventions:                                        *
#                                                                    *
#   Lines starting with a '# ' are info or comments                  *
#                                                                    *
#   mind the format:   value    = variable     ! comment             *
#                                                                    *
#   To display more options, you can type the command:               *
#      update full_run_card                                          *
#*********************************************************************
#
#*******************                                                 
# Running parameters
#*******************                                                 
#                                                                    
#*********************************************************************
# Tag name for the run (one word)                                    *
#*********************************************************************
  DY	= run_tag ! name of the run 
#*********************************************************************
# Number of events and rnd seed                                      *
# Warning: Do not generate more than 1M events in a single run       *
# If you want to run Pythia, avoid more than 50k events in a run.    *
#*********************************************************************
  1500	= nevents ! Number of unweighted events requested 
 10 = iseed ! rnd seed (0=assigned automatically=default))
#*********************************************************************
# Collider type and energy                                           *
# lpp: 0=No PDF, 1=proton, -1=antiproton, 2=photon from proton,      *
#                                         3=photon from electron     *
#*********************************************************************
  1	= lpp1 ! beam 1 type 
  1	= lpp2 ! beam 2 type
  6500.0	= ebeam1 ! beam 1 total energy in GeV
  6500.0	= ebeam2 ! beam 2 total energy in GeV
#*********************************************************************
# Beam polarization from -100 (left-handed) to 100 (right-handed)    *
#*********************************************************************
     0.0     = polbeam1 ! beam polarization for beam 1
     0.0     = polbeam2 ! beam polarization for beam 2

#*********************************************************************
# PDF CHOICE: this automatically fixes also alpha_s and its evol.    *
#*********************************************************************
  lhapdf	= pdlabel ! PDF set                                     
  325300	= lhaid ! if pdlabel=lhapdf, this is the lhapdf number
# To see heavy ion options: type "update ion_pdf"
#*********************************************************************
# Renormalization and factorization scales                           *
#*********************************************************************
  False	= fixed_ren_scale ! if .true. use fixed ren scale
  False	= fixed_fac_scale ! if .true. use fixed fac scale
  91.188	= scale ! fixed ren scale
  91.188	= dsqrt_q2fact1 ! fixed fact scale for pdf1
  91.188	= dsqrt_q2fact2 ! fixed fact scale for pdf2
  -1	= dynamical_scale_choice ! Choose one of the preselected dynamical choices
  1.0	= scalefact ! scale factor for event-by-event scales
#*********************************************************************
# Type and output format
#*********************************************************************
  True	= gridpack !True = setting up the grid pack
  -1.0	= time_of_flight ! threshold (in mm) below which the invariant livetime is not written (-1 means not written)
  3.0	= lhe_version ! Change the way clustering information pass to shower.        
  True	= clusinfo ! include clustering tag in output
  sum	= event_norm ! average/sum. Normalization of the weight in the LHEF

#*********************************************************************
# Matching parameter (MLM only)
#*********************************************************************
  1	= ickkw ! 0 no matching, 1 MLM
  1.0	= alpsfact ! scale factor for QCD emission vx
  False	= chcluster ! cluster only according to channel diag
  5	= asrwgtflavor ! highest quark flavor for a_s reweight
  True	= auto_ptj_mjj ! Automatic setting of ptj and mjj if xqcut >0
                                   ! (turn off for VBF and single top processes) 
  10.0	= xqcut ! minimum kt jet measure between partons
#*********************************************************************
#
#*********************************************************************
# handling of the helicities:
#  0: sum over all helicities
#  1: importance sampling over helicities
#*********************************************************************
  0	= nhel ! using helicities importance sampling or not.
#*********************************************************************
# Generation bias, check the wiki page below for more information:   *
#  'cp3.irmp.ucl.ac.be/projects/madgraph/wiki/LOEventGenerationBias' *
#*********************************************************************
  None	= bias_module ! Bias type of bias, [None, ptj_bias, -custom_folder-]
  {}	= bias_parameters ! Specifies the parameters of the module.
#
#*******************************                                                 
# Parton level cuts definition *
#*******************************                                     
#                                                                    
#
#*********************************************************************
# BW cutoff (M+/-bwcutoff*Gamma) ! Define on/off-shell for "$" and decay  
#*********************************************************************
  15.0	= bwcutoff ! (M+/-bwcutoff*Gamma)
#*********************************************************************
# Apply pt/E/eta/dr/mij/kt_durham cuts on decay products or not
# (note that etmiss/ptll/ptheavy/ht/sorted cuts always apply)
#*********************************************************************
  False	= cut_decays ! Cut decay products 
#*********************************************************************
# Standard Cuts                                                      *
#*********************************************************************
# Minimum and maximum pt's (for max, -1 means no cut)                *
#*********************************************************************
  0.01	= ptj ! minimum pt for the jets 
  0.0	= ptb ! minimum pt for the b 
  10.0	= pta ! minimum pt for the photons 
  0.0	= ptl ! minimum pt for the charged leptons 
  0.0	= misset ! minimum missing Et (sum of neutrino's momenta)
  100000.0	= ptjmax ! maximum pt for the jets
  100000.0	= ptbmax ! maximum pt for the b
  100000.0	= ptamax ! maximum pt for the photons
  100000.0	= ptlmax ! maximum pt for the charged leptons
  100000.0	= missetmax ! maximum missing Et (sum of neutrino's momenta)
  {}	= pt_min_pdg ! pt cut for other particles (use pdg code). Applied on particle and anti-particle
  {}	= pt_max_pdg ! pt cut for other particles (syntax e.g. {6: 100, 25: 50}) 
#*********************************************************************
# Minimum and maximum E's (in the center of mass frame)              *
#*********************************************************************
  0.0	= ej ! minimum E for the jets 
  0.0	= eb ! minimum E for the b 
  0.0	= ea ! minimum E for the photons 
  0.0	= el ! minimum E for the charged leptons 
  100000.0	= ejmax ! maximum E for the jets
  100000.0	= ebmax ! maximum E for the b
  100000.0	= eamax ! maximum E for the photons
  100000.0	= elmax ! maximum E for the charged leptons
  {}	= e_min_pdg ! E cut for other particles (use pdg code). Applied on particle and anti-particle
  {}	= e_max_pdg ! E cut for other particles (syntax e.g. {6: 100, 25: 50}) 
#*********************************************************************
# Maximum and minimum absolute rapidity (for max, -1 means no cut)   *
#*********************************************************************
  5.0	= etaj ! max rap for the jets 
  100.0	= etab ! max rap for the b
  2.5	= etaa ! max rap for the photons 
  100.0	= etal ! max rap for the charged leptons 
  0.0	= etajmin ! min rap for the jets
  0.0	= etabmin ! min rap for the b
  0.0	= etaamin ! min rap for the photons
  0.0	= etalmin ! main rap for the charged leptons
  {}	= eta_min_pdg ! rap cut for other particles (use pdg code). Applied on particle and anti-particle
  {}	= eta_max_pdg ! rap cut for other particles (syntax e.g. {6: 2.5, 23: 5})
#*********************************************************************
# Minimum and maximum DeltaR distance                                *
#*********************************************************************
  0.0	= drjj ! min distance between jets 
  0.0	= drbb ! min distance between b's 
  0.0	= drll ! min distance between leptons 
  0.4	= draa ! min distance between gammas 
  0.0	= drbj ! min distance between b and jet 
  0.4	= draj ! min distance between gamma and jet 
  0.0	= drjl ! min distance between jet and lepton 
  0.0	= drab ! min distance between gamma and b 
  0.0	= drbl ! min distance between b and lepton 
  0.4	= dral ! min distance between gamma and lepton 
  100.0	= drjjmax ! max distance between jets
  100.0	= drbbmax ! max distance between b's
  100.0	= drllmax ! max distance between leptons
  100.0	= draamax ! max distance between gammas
  100.0	= drbjmax ! max distance between b and jet
  100.0	= drajmax ! max distance between gamma and jet
  100.0	= drjlmax ! max distance between jet and lepton
  100.0	= drabmax ! max distance between gamma and b
  100.0	= drblmax ! max distance between b and lepton
  100.0	= dralmax ! maxdistance between gamma and lepton
#*********************************************************************
# Minimum and maximum invariant mass for pairs                       *
# WARNING: for four lepton final state mmll cut require to have      *
#          different lepton masses for each flavor!                  *           
#*********************************************************************
  0.0	= mmjj ! min invariant mass of a jet pair 
  0.0	= mmbb ! min invariant mass of a b pair 
  0.0	= mmaa ! min invariant mass of gamma gamma pair
  50.0	= mmll ! min invariant mass of l+l- (same flavour) lepton pair
  100000.0	= mmjjmax ! max invariant mass of a jet pair
  100000.0	= mmbbmax ! max invariant mass of a b pair
  100000.0	= mmaamax ! max invariant mass of gamma gamma pair
  100000.0	= mmllmax ! max invariant mass of l+l- (same flavour) lepton pair
  {}	= mxx_min_pdg ! min invariant mass of a pair of particles X/X~ (e.g. {6:250})
  {'default': False}	= mxx_only_part_antipart ! if True the invariant mass is applied only 
                       ! to pairs of particle/antiparticle and not to pairs of the same pdg codes.  
#*********************************************************************
# Minimum and maximum invariant mass for all letpons                 *
#*********************************************************************
  0.0	= mmnl ! min invariant mass for all letpons (l+- and vl) 
  100000.0	= mmnlmax ! max invariant mass for all letpons (l+- and vl) 
#*********************************************************************
# Minimum and maximum pt for 4-momenta sum of leptons                *
#*********************************************************************
  0.0	= ptllmin ! Minimum pt for 4-momenta sum of leptons(l and vl)
  100000.0	= ptllmax ! Maximum pt for 4-momenta sum of leptons(l and vl)
#*********************************************************************
# Inclusive cuts                                                     *
#*********************************************************************
  0.0	= ptheavy ! minimum pt for at least one heavy final state
  0.0	= xptj ! minimum pt for at least one jet  
  0.0	= xptb ! minimum pt for at least one b 
  0.0	= xpta ! minimum pt for at least one photon 
  0.0	= xptl ! minimum pt for at least one charged lepton 
#*********************************************************************
# Control the pt's of the jets sorted by pt                          *
#*********************************************************************
  0.0	= ptj1min ! minimum pt for the leading jet in pt
  0.0	= ptj2min ! minimum pt for the second jet in pt
  0.0	= ptj3min ! minimum pt for the third jet in pt
  0.0	= ptj4min ! minimum pt for the fourth jet in pt
  100000.0	= ptj1max ! maximum pt for the leading jet in pt 
  100000.0	= ptj2max ! maximum pt for the second jet in pt
  100000.0	= ptj3max ! maximum pt for the third jet in pt
  100000.0	= ptj4max ! maximum pt for the fourth jet in pt
  0	= cutuse ! reject event if fails any (0) / all (1) jet pt cuts
#*********************************************************************
# Control the pt's of leptons sorted by pt                           *
#*********************************************************************
  0.0	= ptl1min ! minimum pt for the leading lepton in pt
  0.0	= ptl2min ! minimum pt for the second lepton in pt
  0.0	= ptl3min ! minimum pt for the third lepton in pt
  0.0	= ptl4min ! minimum pt for the fourth lepton in pt
  100000.0	= ptl1max ! maximum pt for the leading lepton in pt 
  100000.0	= ptl2max ! maximum pt for the second lepton in pt
  100000.0	= ptl3max ! maximum pt for the third lepton in pt
  100000.0	= ptl4max ! maximum pt for the fourth lepton in pt
#*********************************************************************
# Control the Ht(k)=Sum of k leading jets                            *
#*********************************************************************
  200.0	= htjmin ! minimum jet HT=Sum(jet pt)
  100000.0	= htjmax ! maximum jet HT=Sum(jet pt)
  0.0	= ihtmin !inclusive Ht for all partons (including b)
  100000.0	= ihtmax !inclusive Ht for all partons (including b)
  0.0	= ht2min ! minimum Ht for the two leading jets
  0.0	= ht3min ! minimum Ht for the three leading jets
  0.0	= ht4min ! minimum Ht for the four leading jets
  100000.0	= ht2max ! maximum Ht for the two leading jets
  100000.0	= ht3max ! maximum Ht for the three leading jets
  100000.0	= ht4max ! maximum Ht for the four leading jets
#***********************************************************************
# Photon-isolation cuts, according to hep-ph/9801442                   *
# When ptgmin=0, all the other parameters are ignored                  *
# When ptgmin>0, pta and draj are not going to be used                 *
#***********************************************************************
  0.0	= ptgmin ! Min photon transverse momentum
  0.4	= r0gamma ! Radius of isolation code
  1.0	= xn ! n parameter of eq.(3.4) in hep-ph/9801442
  1.0	= epsgamma ! epsilon_gamma parameter of eq.(3.4) in hep-ph/9801442
  True	= isoem ! isolate photons from EM energy (photons and leptons)
#*********************************************************************
# WBF cuts                                                           *
#*********************************************************************
  0.0	= xetamin ! minimum rapidity for two jets in the WBF case  
  0.0	= deltaeta ! minimum rapidity for two jets in the WBF case 
#***********************************************************************
# Turn on either the ktdurham or ptlund cut to activate                *
# CKKW(L) merging with Pythia8 [arXiv:1410.3012, arXiv:1109.4829]      *
#***********************************************************************
  -1.0	= ktdurham 
  0.4	= dparameter 
  -1.0	= ptlund 
  21, 1, 2, 3, 4, 5, 6	= pdgs_for_merging_cut ! PDGs for two cuts above   
#*********************************************************************
# maximal pdg code for quark to be considered as a light jet         *
# (otherwise b cuts are applied)                                     *
#*********************************************************************
  5	= maxjetflavor ! Maximum jet pdg code
#*********************************************************************
#
#*********************************************************************
# Store info for systematics studies                                 *
# WARNING: Do not use for interference type of computation           *
#*********************************************************************
  True	= use_syst ! Enable systematics studies
#
  None	= systematics_program ! none, systematics [python], SysCalc [depreceted, C++]
['--mur=0.5,1,2', '--muf=0.5,1,2', '--pdf=errorset'] = systematics_arguments ! see: https://cp3.irmp.ucl.ac.be/projects/madgraph/wiki/Systematics#Systematicspythonmodule
# Syscalc is deprecated but to see the associate options type'update syscalc'#********************************************************************* 
#  Additional hidden parameters
#*********************************************************************
  True	= pdfwgt # hidden_parameter
  1.0	= ptonium # hidden_parameter
  1	= highestmult # hidden_parameter
  1	= ktscheme # hidden_parameter
  0.6	= etaonium # hidden_parameter
]]>
</MGRunCard>
<slha>
######################################################################
## PARAM_CARD AUTOMATICALY GENERATED BY MG5 FOLLOWING UFO MODEL   ####
######################################################################
##                                                                  ##
##  Width set on Auto will be computed following the information    ##
##        present in the decay.py files of the model.               ##
##        See  arXiv:1402.1178 for more details.                    ##
##                                                                  ##
######################################################################

###################################
## INFORMATION FOR MASS
###################################
Block mass 
    6 1.730000e+02 # MT 
   15 1.777000e+00 # MTA 
   23 9.118800e+01 # MZ 
   25 1.250000e+02 # MH 
## Dependent parameters, given by model restrictions.
## Those values should be edited following the 
## analytical expression. MG5 ignores those values 
## but they are important for interfacing the output of MG5
## to external program such as Pythia.
  1 0.000000 # d : 0.0 
  2 0.000000 # u : 0.0 
  3 0.000000 # s : 0.0 
  4 0.000000 # c : 0.0 
  5 0.000000 # b : 0.0 
  11 0.000000 # e- : 0.0 
  12 0.000000 # ve : 0.0 
  13 0.000000 # mu- : 0.0 
  14 0.000000 # vm : 0.0 
  16 0.000000 # vt : 0.0 
  21 0.000000 # g : 0.0 
  22 0.000000 # a : 0.0 
  24 80.419002 # w+ : cmath.sqrt(MZ__exp__2/2. + cmath.sqrt(MZ__exp__4/4. - (aEW*cmath.pi*MZ__exp__2)/(Gf*sqrt__2))) 

###################################
## INFORMATION FOR SMINPUTS
###################################
Block sminputs 
    1 1.325070e+02 # aEWM1 
    2 1.166390e-05 # Gf 
    3 1.180000e-01 # aS 

###################################
## INFORMATION FOR WOLFENSTEIN
###################################
Block wolfenstein 
    1 2.253000e-01 # lamWS 
    2 8.080000e-01 # AWS 
    3 1.320000e-01 # rhoWS 
    4 3.410000e-01 # etaWS 

###################################
## INFORMATION FOR YUKAWA
###################################
Block yukawa 
    6 1.730000e+02 # ymt 
   15 1.777000e+00 # ymtau 

###################################
## INFORMATION FOR DECAY
###################################
DECAY   6 1.491500e+00 # WT 
DECAY  15 2.270000e-12 # WTau 
DECAY  23 2.441404e+00 # WZ 
DECAY  24 2.047600e+00 # WW 
DECAY  25 6.382339e-03 # WH 
## Dependent parameters, given by model restrictions.
## Those values should be edited following the 
## analytical expression. MG5 ignores those values 
## but they are important for interfacing the output of MG5
## to external program such as Pythia.
DECAY  1 0.000000 # d : 0.0 
DECAY  2 0.000000 # u : 0.0 
DECAY  3 0.000000 # s : 0.0 
DECAY  4 0.000000 # c : 0.0 
DECAY  5 0.000000 # b : 0.0 
DECAY  11 0.000000 # e- : 0.0 
DECAY  12 0.000000 # ve : 0.0 
DECAY  13 0.000000 # mu- : 0.0 
DECAY  14 0.000000 # vm : 0.0 
DECAY  16 0.000000 # vt : 0.0 
DECAY  21 0.000000 # g : 0.0 
DECAY  22 0.000000 # a : 0.0
</slha>
<MGGenerationInfo>
#  Number of Events        :       100
#  Integrated weight (pb)  :       65.4881302414
</MGGenerationInfo>
</header>
<init>
2212 2212 6.500000e+03 6.500000e+03 0 0 325300 325300 -3 2
4.595564e+00 1.058646e-01 6.548813e-01 1
6.089257e+01 1.201669e+00 6.548813e-01 2
<generator name='MadGraph5_aMC@NLO' version='2.6.5'>please cite 1405.0301 </generator>
</init>
<event>
 7      2 +6.5488130e-01 1.81636100e+02 7.54677100e-03 1.06898000e-01
       21 -1    0    0  501  502 +0.0000000000e+00 +0.0000000000e+00 +3.4918297714e+02 3.4918297714e+02 0.0000000000e+00 0.0000e+00 -1.0000e+00
        3 -1    0    0  503    0 -0.0000000000e+00 -0.0000000000e+00 -2.7338979542e+02 2.7338979542e+02 0.0000000000e+00 0.0000e+00 -1.0000e+00
       23  2    1    2    0    0 -3.1644345590e+01 +1.4801146066e+02 -1.0530953169e+02 2.0250953063e+02 8.3733239744e+01 0.0000e+00 0.0000e+00
      -13  1    3    3    0    0 -3.9736418242e+01 +1.5510651328e+02 -1.0549628928e+02 1.9174587466e+02 0.0000000000e+00 0.0000e+00 -1.0000e+00
       13  1    3    3    0    0 +8.0920726515e+00 -7.0950526213e+00 +1.8675759330e-01 1.0763655973e+01 0.0000000000e+00 0.0000e+00 1.0000e+00
       21  1    1    2  503  502 +1.3128401198e+02 +5.0932736283e+01 +1.3026141574e+02 1.9182719270e+02 0.0000000000e+00 0.0000e+00 -1.0000e+00
        3  1    1    2  501    0 -9.9639666393e+01 -1.9894419694e+02 +5.0841297665e+01 2.2823604922e+02 0.0000000000e+00 0.0000e+00 -1.0000e+00
<scales pt_clust_4="13000.00000" pt_clust_5="13000.00000" pt_clust_6="140.81774" pt_clust_7="161.18438"></scales>
<mgrwt>
<rscale>  0 0.18163606E+03</rscale>
<asrwt>  2 0.14081774E+03 0.16118438E+03</asrwt>
<pdfrwt beam="1">  3       21       21       -3 0.53720458E-01 0.22895645E-01 0.98637066E-03 0.14081774E+03 0.16118438E+03 0.18163606E+03</pdfrwt>
<pdfrwt beam="2">  1        3 0.42059968E-01 0.14081774E+03</pdfrwt>
<totfact> 0.17498551E+01</totfact>
</mgrwt>
<clustering>
<clus scale="   83.733">  4  5 -1 -1</clus>
<clus scale="  140.818">  1  6  2 -1</clus>
<clus scale="  161.184">  1  7  2 -1</clus>
<clus scale="  140.818">  1  4  2 -1</clus>
</clustering>
</event>
<event>
 7      2 +6.5488130e-01 4.51803900e+02 7.54677100e-03 9.51173900e-02
       21 -1    0    0  503  502 +0.0000000000e+00 +0.0000000000e+00 +2.6074762843e+02 2.6074762843e+02 0.0000000000e+00 0.0000e+00 -1.0000e+00
       21 -1    0    0  501  503 -0.0000000000e+00 -0.0000000000e+00 -2.4577128856e+02 2.4577128856e+02 0.0000000000e+00 0.0000e+00 1.0000e+00
       23  2    1    2    0    0 -2.0188371361e+02 +1.7231264054e+00 -2.9627934189e+01 2.2392660537e+02 9.2224222004e+01 0.0000e+00 0.0000e+00
      -15  1    3    3    0    0 -4.7224981125e+01 -3.7976952749e+01 -2.0440287604e+01 6.3979769214e+01 1.7770000000e+00 0.0000e+00 -1.0000e+00
       15  1    3    3    0    0 -1.5465873248e+02 +3.9700079154e+01 -9.1876465848e+00 1.5994683616e+02 1.7770000000e+00 0.0000e+00 1.0000e+00
        1  1    1    2  501    0 +2.1705474629e+02 -5.4024273999e+01 +4.4877607275e+01 2.2813457586e+02 0.0000000000e+00 0.0000e+00 -1.0000e+00
       -1  1    1    2    0  502 -1.5171032686e+01 +5.2301147594e+01 -2.7333320664e-01 5.4457735754e+01 0.0000000000e+00 0.0000e+00 1.0000e+00
<scales pt_clust_4="13000.00000" pt_clust_5="13000.00000" pt_clust_6="13000.00000" pt_clust_7="54.45708"></scales>
<mgrwt>
<rscale>  1 0.45180389E+03</rscale>
<asrwt>  1 0.54457077E+02</asrwt>
<pdfrwt beam="1">  2       21        1 0.40115020E-01 0.31480361E-01 0.54457077E+02 0.45180389E+03</pdfrwt>
<pdfrwt beam="2">  1       21 0.37810968E-01 0.54457077E+02</pdfrwt>
<totfact> 0.64891278E+02</totfact>
</mgrwt>
<clustering>
<clus scale="   54.457">  1  7  2 -1</clus>
<clus scale="   92.224">  4  5 -1 -1</clus>
<clus scale="  209.510">  4  6 -1 -1</clus>
<clus scale="   54.457">  1  4  2 -1</clus>
</clustering>
</event>
<event>
 7      2 +6.5488130e-01 2.75689400e+02 7.54677100e-03 1.01153800e-01
        1 -1    0    0  503    0 -0.0000000000e+00 +0.0000000000e+00 +8.6138736539e+02 8.6138736539e+02 0.0000000000e+00 0.0000e+00 -1.0000e+00
       21 -1    0    0  501  502 +0.0000000000e+00 -0.0000000000e+00 -1.1261842313e+02 1.1261842313e+02 0.0000000000e+00 0.0000e+00 1.0000e+00
       23  2    1    2    0    0 +1.0423044737e+02 -2.3133864078e+02 +5.1032026000e+02 5.7716254529e+02 9.1149783583e+01 0.0000e+00 0.0000e+00
      -15  1    3    3    0    0 +1.1100771814e+02 -2.1416904999e+02 +4.1470006385e+02 4.7976076970e+02 1.7770000000e+00 0.0000e+00 1.0000e+00
       15  1    3    3    0    0 -6.7772707740e+00 -1.7169590787e+01 +9.5620196157e+01 9.7401775595e+01 1.7770000000e+00 0.0000e+00 -1.0000e+00
       21  1    1    2  503  502 +2.6095364808e+01 -7.7409127773e+00 -9.2439351174e+00 2.8746132462e+01 0.0000000000e+00 0.0000e+00 1.0000e+00
        1  1    1    2  501    0 -1.3032581218e+02 +2.3907955355e+02 +2.4769261738e+02 3.6809711076e+02 0.0000000000e+00 0.0000e+00 -1.0000e+00
<scales pt_clust_4="13000.00000" pt_clust_5="13000.00000" pt_clust_6="27.21929" pt_clust_7="260.18527"></scales>
<mgrwt>
<rscale>  0 0.27568942E+03</rscale>
<asrwt>  2 0.27219291E+02 0.26018527E+03</asrwt>
<pdfrwt beam="1">  3       21       21       -1 0.17325912E-01 0.14207466E-01 0.37097057E-03 0.27219291E+02 0.26018527E+03 0.27568942E+03</pdfrwt>
<pdfrwt beam="2">  1        1 0.13252113E+00 0.27219291E+02</pdfrwt>
<totfact> 0.19740888E+02</totfact>
</mgrwt>
<clustering>
<clus scale="   27.219">  2  6  1 -1</clus>
<clus scale="   91.150">  4  5 -1 -1</clus>
<clus scale="  260.185">  2  7  1 -1</clus>
<clus scale="   27.219">  2  4  1 -1</clus>
</clustering>
</event>
<event>
 6      1 +6.5488130e-01 8.97143800e+02 7.54677100e-03 8.78572400e-02
       -1 -1    0    0    0  501 -0.0000000000e+00 +0.0000000000e+00 +3.6852884343e+02 3.6852884343e+02 0.0000000000e+00 0.0000e+00 1.0000e+00
       21 -1    0    0  501  502 +0.0000000000e+00 -0.0000000000e+00 -5.4599995210e+02 5.4599995210e+02 0.0000000000e+00 0.0000e+00 1.0000e+00
       23  2    1    2    0    0 +4.0967666121e+02 +1.5541241762e+02 -1.6133898275e+01 4.4760515964e+02 9.0011610214e+01 0.0000e+00 0.0000e+00
      -15  1    3    3    0    0 +4.1345289228e+02 +1.4879379024e+02 -1.4778150141e+01 4.3966400535e+02 1.7770000000e+00 0.0000e+00 1.0000e+00
       15  1    3    3    0    0 -3.7762310698e+00 +6.6186273816e+00 -1.3557481341e+00 7.9411542934e+00 1.7770000000e+00 0.0000e+00 -1.0000e+00
       -1  1    1    2    0  502 -4.0967666121e+02 -1.5541241762e+02 -1.6133721040e+02 4.6692363588e+02 0.0000000000e+00 0.0000e+00 1.0000e+00
<scales pt_clust_4="13000.00000" pt_clust_5="13000.00000" pt_clust_6="13000.00000"></scales>
<mgrwt>
<rscale>  1 0.89714376E+03</rscale>
<asrwt>0</asrwt>
<pdfrwt beam="1">  1       21 0.83999993E-01 0.89714376E+03</pdfrwt>
<pdfrwt beam="2">  1       -1 0.56696745E-01 0.89714376E+03</pdfrwt>
<totfact> 0.33656521E+01</totfact>
</mgrwt>
<clustering>
<clus scale="   90.012">  4  5 -1 -1</clus>
<clus scale="  438.165">  4  6 -1 -1</clus>
<clus scale="  897.144">  2  4  1 -1</clus>
</clustering>
</event>
<event>
 7      2 +6.5488130e-01 1.59075200e+02 7.54677100e-03 1.08866300e-01
       -1 -1    0    0    0  501 +0.0000000000e+00 +0.0000000000e+00 +2.5163142523e+02 2.5163142523e+02 0.0000000000e+00 0.0000e+00 1.0000e+00
        5 -1    0    0  501    0 -0.0000000000e+00 -0.0000000000e+00 -5.8942736340e+02 5.8942736340e+02 0.0000000000e+00 0.0000e+00 -1.0000e+00
       23  2    1    2    0    0 +1.0721419735e+02 -3.7259362082e+01 -2.1844966939e+02 2.6212369757e+02 9.0030164912e+01 0.0000e+00 0.0000e+00
      -11  1    3    3    0    0 +8.3649705896e+01 -1.5335158266e+01 -2.1316915065e+02 2.2950713968e+02 0.0000000000e+00 0.0000e+00 1.0000e+00
       11  1    3    3    0    0 +2.3564491450e+01 -2.1924203817e+01 -5.2805187425e+00 3.2616557888e+01 0.0000000000e+00 0.0000e+00 -1.0000e+00
       -1  1    1    2    0  502 +6.1909906351e+00 -5.6459082034e+01 +2.1036103667e+02 2.1789383208e+02 0.0000000000e+00 0.0000e+00 1.0000e+00
        5  1    1    2  502    0 -1.1340518798e+02 +9.3718444116e+01 -3.2970730544e+02 3.6104125899e+02 0.0000000000e+00 0.0000e+00 -1.0000e+00
<scales pt_clust_4="13000.00000" pt_clust_5="13000.00000" pt_clust_6="56.79750" pt_clust_7="131.14692"></scales>
<mgrwt>
<rscale>  0 0.15907523E+03</rscale>
<asrwt>  2 0.56797503E+02 0.13114692E+03</asrwt>
<pdfrwt beam="1">  3       -1       21       -5 0.38712528E-01 0.55224746E-02 0.52889865E-03 0.56797503E+02 0.13114692E+03 0.15907523E+03</pdfrwt>
<pdfrwt beam="2">  1        5 0.90681132E-01 0.56797503E+02</pdfrwt>
<totfact> 0.27956985E-01</totfact>
</mgrwt>
<clustering>
<clus scale="   56.798">  1  6  2 -1</clus>
<clus scale="   90.030">  4  5 -1 -1</clus>
<clus scale="  131.147">  1  7  2 -1</clus>
<clus scale="   56.798">  1  4  2 -1</clus>
</clustering>
</event>
<event>
 7      2 +6.5488130e-01 1.46002400e+02 7.54677100e-03 1.11772700e-01
       21 -1    0    0  501  502 +0.0000000000e+00 +0.0000000000e+00 +6.6509575296e+02 6.6509575296e+02 0.0000000000e+00 0.0000e+00 -1.0000e+00
        2 -1    0    0  503    0 -0.0000000000e+00 -0.0000000000e+00 -2.3460837155e+02 2.3460837155e+02 0.0000000000e+00 0.0000e+00 -1.0000e+00
       23  2    1    2    0    0 +3.6613236494e+01 -5.5698814795e+00 -1.6746690899e+02 1.9370189690e+02 9.0020589794e+01 0.0000e+00 0.0000e+00
      -15  1    3    3    0    0 -7.6613024691e+00 +3.2791198226e+01 -3.3772057863e+01 4.7724918627e+01 1.7770000000e+00 0.0000e+00 -1.0000e+00
       15  1    3    3    0    0 +4.4274538963e+01 -3.8361079706e+01 -1.3369485113e+02 1.4597697827e+02 1.7770000000e+00 0.0000e+00 1.0000e+00
       21  1    1    2  503  502 -9.3063495055e+01 +1.1890838430e+02 +5.5041901600e+02 5.7075486081e+02 0.0000000000e+00 0.0000e+00 -1.0000e+00
        2  1    1    2  501    0 +5.6450258561e+01 -1.1333850282e+02 +4.7535274414e+01 1.3524736680e+02 0.0000000000e+00 0.0000e+00 -1.0000e+00
<scales pt_clust_4="13000.00000" pt_clust_5="13000.00000" pt_clust_6="13000.00000" pt_clust_7="146.00236"></scales>
<mgrwt>
<rscale>  2 0.13193007E+03</rscale>
<asrwt>0</asrwt>
<pdfrwt beam="1">  1       21 0.10232242E+00 0.14600236E+03</pdfrwt>
<pdfrwt beam="2">  1        2 0.36093596E-01 0.97340943E+02</pdfrwt>
<totfact> 0.17751570E+01</totfact>
</mgrwt>
<clustering>
<clus scale="   90.021">  4  5 -1 -1</clus>
<clus scale="   97.341">  2  4  1 -1</clus>
<clus scale="  146.002">  2  7  1 -1</clus>
<clus scale="  146.002">  1  4  2 -1</clus>
</clustering>
</event>
<event>
 7      2 +6.5488130e-01 4.63400400e+02 7.54677100e-03 9.48275000e-02
       -5 -1    0    0    0  501 -0.0000000000e+00 +0.0000000000e+00 +1.7447836929e+02 1.7447836929e+02 0.0000000000e+00 0.0000e+00 -1.0000e+00
        2 -1    0    0  501    0 +0.0000000000e+00 -0.0000000000e+00 -7.0592997966e+02 7.0592997966e+02 0.0000000000e+00 0.0000e+00 -1.0000e+00
       23  2    1    2    0    0 -1.3834864202e+01 +2.5000695415e+01 +3.9144177943e+01 1.0410482752e+02 9.2136367455e+01 0.0000e+00 0.0000e+00
      -11  1    3    3    0    0 +2.2897390892e+01 +4.5930806880e+01 +8.8129670076e+00 5.2073005653e+01 0.0000000000e+00 0.0000e+00 -1.0000e+00
       11  1    3    3    0    0 -3.6732255094e+01 -2.0930111465e+01 +3.0331210936e+01 5.2031821869e+01 0.0000000000e+00 0.0000e+00 1.0000e+00
        2  1    1    2  502    0 -2.2681216873e+02 +4.9075889253e+01 -1.2274176041e+02 2.6252188963e+02 0.0000000000e+00 0.0000e+00 -1.0000e+00
       -5  1    1    2    0  502 +2.4064703293e+02 -7.4076584668e+01 -4.4785402791e+02 5.1378163179e+02 0.0000000000e+00 0.0000e+00 -1.0000e+00
<scales pt_clust_4="13000.00000" pt_clust_5="13000.00000" pt_clust_6="232.06089" pt_clust_7="13000.00000"></scales>
<mgrwt>
<rscale>  1 0.46340040E+03</rscale>
<asrwt>  1 0.23206089E+03</asrwt>
<pdfrwt beam="1">  2        2       21 0.10860461E+00 0.35465656E-01 0.23206089E+03 0.46340040E+03</pdfrwt>
<pdfrwt beam="2">  1       -5 0.26842826E-01 0.23206089E+03</pdfrwt>
<totfact> 0.21954674E+00</totfact>
</mgrwt>
<clustering>
<clus scale="   92.136">  4  5 -1 -1</clus>
<clus scale="  232.061">  2  6  1 -1</clus>
<clus scale="   39.805">  4  7 -1 -1</clus>
<clus scale="  232.061">  2  4  1 -1</clus>
</clustering>
</event>
<event>
 6      2 +6.5488130e-01 4.83826900e+02 7.54677100e-03 9.62135500e-02
       21 -1    0    0  503  502 +0.0000000000e+00 +0.0000000000e+00 +1.1615923193e+02 1.1615923193e+02 0.0000000000e+00 0.0000e+00 -1.0000e+00
        2 -1    0    0  502    0 -0.0000000000e+00 -0.0000000000e+00 -1.1858000283e+03 1.1858000283e+03 0.0000000000e+00 0.0000e+00 -1.0000e+00
      -13  1    1    2    0    0 +2.9769773973e+01 -4.8704927317e+01 -1.3491886734e+02 1.4649747490e+02 0.0000000000e+00 0.0000e+00 -1.0000e+00
       13  1    1    2    0    0 +1.5988112015e+02 -1.0761176906e+02 -3.1439842500e+02 3.6876636921e+02 0.0000000000e+00 0.0000e+00 1.0000e+00
       21  1    1    2  503  501 -2.8608554152e+02 +2.1325981464e+02 -3.7839723406e+02 5.2010494360e+02 0.0000000000e+00 0.0000e+00 -1.0000e+00
        2  1    1    2  501    0 +9.6434647399e+01 -5.6943118260e+01 -2.4192626999e+02 2.6659047253e+02 0.0000000000e+00 0.0000e+00 -1.0000e+00
<scales pt_clust_3="13000.00000" pt_clust_4="13000.00000" pt_clust_5="233.47878" pt_clust_6="233.47878"></scales>
<mgrwt>
<rscale>  1 0.41111075E+03</rscale>
<asrwt>  1 0.23347878E+03</asrwt>
<pdfrwt beam="1">  1       21 0.17870651E-01 0.48382686E+03</pdfrwt>
<pdfrwt beam="2">  1        2 0.18243078E+00 0.25221182E+03</pdfrwt>
<totfact> 0.79176321E+01</totfact>
</mgrwt>
<clustering>
<clus scale="   30.827">  3  4 -1 -1</clus>
<clus scale="  233.479">  5  6 -1 -1</clus>
<clus scale="  252.212">  2  3  1 -1</clus>
<clus scale="  483.827">  1  3  2 -1</clus>
</clustering>
</event>
<event>
 7      2 +6.5488130e-01 3.11812300e+02 7.54677100e-03 9.95771000e-02
        5 -1    0    0  501    0 -0.0000000000e+00 +0.0000000000e+00 +9.7062270407e+01 9.7062270407e+01 0.0000000000e+00 0.0000e+00 -1.0000e+00
        2 -1    0    0  502    0 +0.0000000000e+00 -0.0000000000e+00 -6.2460738668e+02 6.2460738668e+02 0.0000000000e+00 0.0000e+00 -1.0000e+00
       23  2    1    2    0    0 -2.6496799299e+01 +9.2894507496e+01 -1.0989862741e+02 1.7240649278e+02 9.1185637849e+01 0.0000e+00 0.0000e+00
      -13  1    3    3    0    0 -1.4917398720e+00 +3.3631853871e+01 +1.1038130728e+01 3.5428339118e+01 0.0000000000e+00 0.0000e+00 -1.0000e+00
       13  1    3    3    0    0 -2.5005059427e+01 +5.9262653625e+01 -1.2093675814e+02 1.3697815366e+02 0.0000000000e+00 0.0000e+00 1.0000e+00
        2  1    1    2  501    0 +1.7259020932e+02 +1.1652943580e+01 -2.4650672199e+02 3.0114570466e+02 0.0000000000e+00 0.0000e+00 -1.0000e+00
        5  1    1    2  502    0 -1.4609341002e+02 -1.0454745108e+02 -1.7113976687e+02 2.4811745965e+02 0.0000000000e+00 0.0000e+00 -1.0000e+00
<scales pt_clust_4="13000.00000" pt_clust_5="13000.00000" pt_clust_6="13000.00000" pt_clust_7="179.64814"></scales>
<mgrwt>
<rscale>  1 0.31181230E+03</rscale>
<asrwt>  1 0.17964814E+03</asrwt>
<pdfrwt beam="1">  1        2 0.96093443E-01 0.31181230E+03</pdfrwt>
<pdfrwt beam="2">  2        5       21 0.14932657E-01 0.39996483E-02 0.17964814E+03 0.31181230E+03</pdfrwt>
<totfact> 0.85617785E+00</totfact>
</mgrwt>
<clustering>
<clus scale="   91.186">  4  5 -1 -1</clus>
<clus scale="  172.983">  4  6 -1 -1</clus>
<clus scale="  179.648">  1  7  2 -1</clus>
<clus scale="  311.812">  2  4  1 -1</clus>
</clustering>
</event>
<event>
 7      2 +6.5488130e-01 1.45271100e+02 7.54677100e-03 1.11792100e-01
        2 -1    0    0  502    0 +0.0000000000e+00 +0.0000000000e+00 +1.1758551116e+03 1.1758551116e+03 0.0000000000e+00 0.0000e+00 -1.0000e+00
        5 -1    0    0  501    0 -0.0000000000e+00 -0.0000000000e+00 -1.2461346816e+02 1.2461346816e+02 0.0000000000e+00 0.0000e+00 1.0000e+00
       23  2    1    2    0    0 -1.6613808197e+01 -3.2442653318e+01 +5.4619869081e+02 5.5498078291e+02 9.1335180396e+01 0.0000e+00 0.0000e+00
      -11  1    3    3    0    0 +3.5302295548e+01 +2.9946580891e+00 +1.8823937018e+02 1.9154446098e+02 0.0000000000e+00 0.0000e+00 1.0000e+00
       11  1    3    3    0    0 -5.1916103745e+01 -3.5437311407e+01 +3.5795932064e+02 3.6343632193e+02 0.0000000000e+00 0.0000e+00 -1.0000e+00
        2  1    1    2  501    0 -1.9054619416e+01 -1.1117277350e+02 +5.7203654178e+02 5.8305082902e+02 0.0000000000e+00 0.0000e+00 -1.0000e+00
        5  1    1    2  502    0 +3.5668427613e+01 +1.4361542682e+02 -6.6993589108e+01 1.6243696787e+02 0.0000000000e+00 0.0000e+00 1.0000e+00
<scales pt_clust_4="13000.00000" pt_clust_5="13000.00000" pt_clust_6="13000.00000" pt_clust_7="145.27112"></scales>
<mgrwt>
<rscale>  1 0.13176998E+03</rscale>
<asrwt>  1 0.14527112E+03</asrwt>
<pdfrwt beam="1">  1        2 0.18090078E+00 0.98339512E+02</pdfrwt>
<pdfrwt beam="2">  2        5       21 0.19171304E-01 0.19171304E-01 0.14527112E+03 0.14527112E+03</pdfrwt>
<totfact> 0.27262493E+00</totfact>
</mgrwt>
<clustering>
<clus scale="   91.335">  4  5 -1 -1</clus>
<clus scale="   98.340">  1  4  2 -1</clus>
<clus scale="  145.271">  2  7  1 -1</clus>
<clus scale="   98.340">  1  4  2 -1</clus>
</clustering>
</event>
<event>
 6      1 +6.5488130e-01 3.25927000e+02 7.54677100e-03 9.90222300e-02
        2 -1    0    0  502    0 -0.0000000000e+00 +0.0000000000e+00 +3.0043319335e+03 3.0043319335e+03 0.0000000000e+00 0.0000e+00 -1.0000e+00
       21 -1    0    0  501  502 +0.0000000000e+00 -0.0000000000e+00 -3.4002453044e+01 3.4002453044e+01 0.0000000000e+00 0.0000e+00 1.0000e+00
       23  2    1    2    0    0 +2.4542135897e+02 +1.9430317011e+02 +1.5600495176e+03 1.5937323864e+03 9.0791280181e+01 0.0000e+00 0.0000e+00
      -15  1    3    3    0    0 +5.7084454268e+01 +4.1510028852e+00 +3.2630361620e+02 3.3129001407e+02 1.7770000000e+00 0.0000e+00 -1.0000e+00
       15  1    3    3    0    0 +1.8833690471e+02 +1.9015216722e+02 +1.2337459014e+03 1.2624423723e+03 1.7770000000e+00 0.0000e+00 1.0000e+00
        2  1    1    2  501    0 -2.4542135897e+02 -1.9430317011e+02 +1.4102799628e+03 1.4446020002e+03 0.0000000000e+00 0.0000e+00 -1.0000e+00
<scales pt_clust_4="13000.00000" pt_clust_5="13000.00000" pt_clust_6="313.02614"></scales>
<mgrwt>
<rscale>  0 0.32592702E+03</rscale>
<asrwt>  1 0.31302614E+03</asrwt>
<pdfrwt beam="1">  2       21       -2 0.52311490E-02 0.10552788E-03 0.31302614E+03 0.32592702E+03</pdfrwt>
<pdfrwt beam="2">  1        2 0.46220471E+00 0.31302614E+03</pdfrwt>
<totfact> 0.62426488E+02</totfact>
</mgrwt>
<clustering>
<clus scale="   90.791">  4  5 -1 -1</clus>
<clus scale="  313.026">  2  6  1 -1</clus>
<clus scale="  313.026">  2  4  1 -1</clus>
</clustering>
</event>
<event>
 7      2 +6.5488130e-01 2.12827300e+02 7.54677100e-03 1.04639700e-01
        2 -1    0    0  503    0 -0.0000000000e+00 +0.0000000000e+00 +2.7839201769e+03 2.7839201769e+03 0.0000000000e+00 0.0000e+00 -1.0000e+00
       21 -1    0    0  501  502 +0.0000000000e+00 -0.0000000000e+00 -2.1723408249e+01 2.1723408249e+01 0.0000000000e+00 0.0000e+00 -1.0000e+00
       23  2    1    2    0    0 +8.8416054491e+01 +1.4392769965e+02 +1.1589560337e+03 1.1746716773e+03 9.0232367250e+01 0.0000e+00 0.0000e+00
      -13  1    3    3    0    0 +7.1701560272e+01 +9.5947511525e+01 +1.0143880677e+03 1.0214353580e+03 0.0000000000e+00 0.0000e+00 -1.0000e+00
       13  1    3    3    0    0 +1.6714494219e+01 +4.7980188122e+01 +1.4456796598e+02 1.5323631931e+02 0.0000000000e+00 0.0000e+00 1.0000e+00
       21  1    1    2  503  502 -8.7587726361e+01 -2.1153709891e+02 +1.1336887825e+03 1.1565767634e+03 0.0000000000e+00 0.0000e+00 -1.0000e+00
        2  1    1    2  501    0 -8.2832812947e-01 +6.7609399268e+01 +4.6955195249e+02 4.7439514446e+02 0.0000000000e+00 0.0000e+00 -1.0000e+00
<scales pt_clust_4="13000.00000" pt_clust_5="13000.00000" pt_clust_6="192.75258" pt_clust_7="67.61451"></scales>
<mgrwt>
<rscale>  0 0.21282725E+03</rscale>
<asrwt>  2 0.67614507E+02 0.19275258E+03</asrwt>
<pdfrwt beam="1">  3       21       -2       -2 0.33420650E-02 0.24029126E-02 0.11248507E-03 0.67614507E+02 0.19275258E+03 0.21282725E+03</pdfrwt>
<pdfrwt beam="2">  1        2 0.42829513E+00 0.67614507E+02</pdfrwt>
<totfact> 0.32258169E+02</totfact>
</mgrwt>
<clustering>
<clus scale="   67.615">  2  7  1 -1</clus>
<clus scale="   90.232">  4  5 -1 -1</clus>
<clus scale="  192.753">  2  6  1 -1</clus>
<clus scale="   67.615">  2  4  1 -1</clus>
</clustering>
</event>
<event>
 7      2 +6.5488130e-01 2.64597700e+02 7.54677100e-03 1.01690800e-01
        1 -1    0    0  503    0 -0.0000000000e+00 +0.0000000000e+00 +1.5698890045e+03 1.5698890045e+03 0.0000000000e+00 0.0000e+00 -1.0000e+00
       21 -1    0    0  501  502 +0.0000000000e+00 -0.0000000000e+00 -6.8545984030e+01 6.8545984030e+01 0.0000000000e+00 0.0000e+00 -1.0000e+00
       23  2    1    2    0    0 -1.3308488385e+02 -2.1029104438e+02 +1.1604711724e+03 1.1902822451e+03 9.0247279136e+01 0.0000e+00 0.0000e+00
      -15  1    3    3    0    0 +1.2083962837e+01 -2.2941739854e+01 +7.9844603291e+01 8.3968232023e+01 1.7770000000e+00 0.0000e+00 1.0000e+00
       15  1    3    3    0    0 -1.4516884668e+02 -1.8734930453e+02 +1.0806265691e+03 1.1063140130e+03 1.7770000000e+00 0.0000e+00 -1.0000e+00
       21  1    1    2  503  502 +1.8140754811e+01 -1.0611978537e+01 -5.3424793090e+00 2.1685090702e+01 0.0000000000e+00 0.0000e+00 1.0000e+00
        1  1    1    2  501    0 +1.1494412904e+02 +2.2090302292e+02 +3.4621432739e+02 4.2646765273e+02 0.0000000000e+00 0.0000e+00 -1.0000e+00
<scales pt_clust_4="13000.00000" pt_clust_5="13000.00000" pt_clust_6="21.01669" pt_clust_7="248.73152"></scales>
<mgrwt>
<rscale>  0 0.26459769E+03</rscale>
<asrwt>  2 0.21016686E+02 0.24873152E+03</asrwt>
<pdfrwt beam="1">  3       21       21       -1 0.10545537E-01 0.84116033E-02 0.19953817E-03 0.21016686E+02 0.24873152E+03 0.26459769E+03</pdfrwt>
<pdfrwt beam="2">  1        1 0.24152136E+00 0.21016686E+02</pdfrwt>
<totfact> 0.19126646E+02</totfact>
</mgrwt>
<clustering>
<clus scale="   21.017">  2  6  1 -1</clus>
<clus scale="   90.247">  4  5 -1 -1</clus>
<clus scale="  248.732">  2  7  1 -1</clus>
<clus scale="   21.017">  2  4  1 -1</clus>
</clustering>
</event>
<event>
 6      1 +6.5488130e-01 2.91674000e+02 7.54677100e-03 1.00426000e-01
        2 -1    0    0  502    0 -0.0000000000e+00 +0.0000000000e+00 +1.1906849704e+03 1.1906849704e+03 0.0000000000e+00 0.0000e+00 -1.0000e+00
       21 -1    0    0  501  502 +0.0000000000e+00 -0.0000000000e+00 -7.7937748741e+01 7.7937748741e+01 0.0000000000e+00 0.0000e+00 1.0000e+00
       23  2    1    2    0    0 -2.7209569623e+02 -5.8698616983e+01 +7.9163448002e+02 8.4365802838e+02 8.7132791517e+01 0.0000e+00 0.0000e+00
      -13  1    3    3    0    0 -1.4524725487e+02 +1.2798020482e+01 +3.7849067034e+02 4.0560540172e+02 0.0000000000e+00 0.0000e+00 1.0000e+00
       13  1    3    3    0    0 -1.2684844136e+02 -7.1496637466e+01 +4.1314380968e+02 4.3805262666e+02 0.0000000000e+00 0.0000e+00 -1.0000e+00
        2  1    1    2  501    0 +2.7209569623e+02 +5.8698616983e+01 +3.2111274162e+02 4.2496469073e+02 0.0000000000e+00 0.0000e+00 -1.0000e+00
<scales pt_clust_4="13000.00000" pt_clust_5="13000.00000" pt_clust_6="278.35516"></scales>
<mgrwt>
<rscale>  0 0.29167399E+03</rscale>
<asrwt>  1 0.27835516E+03</asrwt>
<pdfrwt beam="1">  2       21       -2 0.11990424E-01 0.24524100E-03 0.27835516E+03 0.29167399E+03</pdfrwt>
<pdfrwt beam="2">  1        2 0.18318229E+00 0.27835516E+03</pdfrwt>
<totfact> 0.16402985E+03</totfact>
</mgrwt>
<clustering>
<clus scale="   87.133">  4  5 -1 -1</clus>
<clus scale="  278.355">  2  6  1 -1</clus>
<clus scale="  278.355">  2  4  1 -1</clus>
</clustering>
</event>
<event>
 7      2 +6.5488130e-01 2.42443300e+02 7.54677100e-03 1.02854300e-01
       -2 -1    0    0    0  501 -0.0000000000e+00 +0.0000000000e+00 +1.2789971358e+02 1.2789971358e+02 0.0000000000e+00 0.0000e+00 -1.0000e+00
       21 -1    0    0  501  502 +0.0000000000e+00 -0.0000000000e+00 -4.9757397741e+02 4.9757397741e+02 0.0000000000e+00 0.0000e+00 -1.0000e+00
       23  2    1    2    0    0 +2.0479114913e+02 +9.1914145843e+01 -7.9263414644e+01 2.5507145083e+02 9.1603117624e+01 0.0000e+00 0.0000e+00
      -13  1    3    3    0    0 +5.6294592327e+01 -1.5062750482e+01 -2.9981668428e+01 6.5535242573e+01 0.0000000000e+00 0.0000e+00 1.0000e+00
       13  1    3    3    0    0 +1.4849655681e+02 +1.0697689632e+02 -4.9281746216e+01 1.8953620826e+02 0.0000000000e+00 0.0000e+00 -1.0000e+00
       21  1    1    2  503  502 -4.8455311737e+01 -1.1230269251e+01 -9.6586426647e+01 1.0864149297e+02 0.0000000000e+00 0.0000e+00 -1.0000e+00
       -2  1    1    2    0  503 -1.5633583740e+02 -8.0683876592e+01 -1.9382442254e+02 2.6176074719e+02 0.0000000000e+00 0.0000e+00 -1.0000e+00
<scales pt_clust_4="13000.00000" pt_clust_5="13000.00000" pt_clust_6="26.43531" pt_clust_7="229.91163"></scales>
<mgrwt>
<rscale>  0 0.24244330E+03</rscale>
<asrwt>  2 0.26435310E+02 0.22991163E+03</asrwt>
<pdfrwt beam="1">  2       21        2 0.76549842E-01 0.25233505E-02 0.22991163E+03 0.24244330E+03</pdfrwt>
<pdfrwt beam="2">  1       -2 0.19676879E-01 0.22991163E+03</pdfrwt>
<totfact> 0.46766910E+01</totfact>
</mgrwt>
<clustering>
<clus scale="   26.435">  6  7 -1 -1</clus>
<clus scale="   91.603">  4  5 -1 -1</clus>
<clus scale="  229.912">  2  6  1 -1</clus>
<clus scale="  229.912">  2  4  1 -1</clus>
</clustering>
</event>
<event>
 7      2 +6.5488130e-01 6.81553300e+02 7.54677100e-03 9.06264900e-02
       -4 -1    0    0    0  501 -0.0000000000e+00 +0.0000000000e+00 +1.6197556317e+02 1.6197556317e+02 0.0000000000e+00 0.0000e+00 -1.0000e+00
        2 -1    0    0  501    0 +0.0000000000e+00 -0.0000000000e+00 -1.7119419510e+03 1.7119419510e+03 0.0000000000e+00 0.0000e+00 1.0000e+00
       23  2    1    2    0    0 -8.3454180368e+01 +1.8926213796e+02 -1.6267203699e+03 1.6433719738e+03 1.0801632031e+02 0.0000e+00 0.0000e+00
      -11  1    3    3    0    0 +8.9620961826e+00 -6.1263361421e+00 -2.0783192706e+02 2.0811525910e+02 0.0000000000e+00 0.0000e+00 -1.0000e+00
       11  1    3    3    0    0 -9.2416276550e+01 +1.9538847411e+02 -1.4188884428e+03 1.4352567147e+03 0.0000000000e+00 0.0000e+00 1.0000e+00
        2  1    1    2  502    0 +6.4840827138e+01 -8.2441193860e+01 +1.5542552051e+01 1.0603044013e+02 0.0000000000e+00 0.0000e+00 1.0000e+00
       -4  1    1    2    0  502 +1.8613353230e+01 -1.0682094410e+02 +6.1211430008e+01 1.2451510021e+02 0.0000000000e+00 0.0000e+00 -1.0000e+00
<scales pt_clust_4="13000.00000" pt_clust_5="13000.00000" pt_clust_6="13000.00000" pt_clust_7="108.43049"></scales>
<mgrwt>
<rscale>  1 0.68155326E+03</rscale>
<asrwt>  1 0.10843049E+03</asrwt>
<pdfrwt beam="1">  1        2 0.26337567E+00 0.68155326E+03</pdfrwt>
<pdfrwt beam="2">  2       -4       21 0.24919319E-01 0.10171932E-01 0.10843049E+03 0.68155326E+03</pdfrwt>
<totfact> 0.93742284E-01</totfact>
</mgrwt>
<clustering>
<clus scale="  108.016">  4  5 -1 -1</clus>
<clus scale="  104.885">  4  6 -1 -1</clus>
<clus scale="  108.430">  1  7  2 -1</clus>
<clus scale="  681.553">  2  4  1 -1</clus>
</clustering>
</event>
<event>
 7      2 +6.5488130e-01 1.63245100e+02 7.54677100e-03 1.08476600e-01
        2 -1    0    0  503    0 -0.0000000000e+00 +0.0000000000e+00 +8.3365803051e+02 8.3365803051e+02 0.0000000000e+00 0.0000e+00 -1.0000e+00
       21 -1    0    0  501  502 +0.0000000000e+00 -0.0000000000e+00 -1.2484525408e+02 1.2484525408e+02 0.0000000000e+00 0.0000e+00 -1.0000e+00
       23  2    1    2    0    0 -1.2828521522e+02 +3.1137110177e+01 +6.3961288190e+02 6.6068986488e+02 9.9899163089e+01 0.0000e+00 0.0000e+00
      -11  1    3    3    0    0 -1.3666536564e+02 +4.9345511638e+01 +5.7218888595e+02 5.9034949216e+02 0.0000000000e+00 0.0000e+00 -1.0000e+00
       11  1    3    3    0    0 +8.3801504197e+00 -1.8208401461e+01 +6.7423995955e+01 7.0340372726e+01 0.0000000000e+00 0.0000e+00 1.0000e+00
       21  1    1    2  503  502 +5.5064784934e+01 +1.1169287938e+02 +4.0618611853e+00 1.2459505833e+02 0.0000000000e+00 0.0000e+00 -1.0000e+00
        2  1    1    2  501    0 +7.3220430283e+01 -1.4282998956e+02 +6.5138033341e+01 1.7321836137e+02 0.0000000000e+00 0.0000e+00 -1.0000e+00
<scales pt_clust_4="13000.00000" pt_clust_5="13000.00000" pt_clust_6="124.52883" pt_clust_7="129.10899"></scales>
<mgrwt>
<rscale>  0 0.16324514E+03</rscale>
<asrwt>  2 0.12452883E+03 0.12910899E+03</asrwt>
<pdfrwt beam="1">  3       21       21       -2 0.19206963E-01 0.84530903E-02 0.46042874E-03 0.12452883E+03 0.12910899E+03 0.16324514E+03</pdfrwt>
<pdfrwt beam="2">  1        2 0.12825508E+00 0.12452883E+03</pdfrwt>
<totfact> 0.15525128E+02</totfact>
</mgrwt>
<clustering>
<clus scale="   99.899">  4  5 -1 -1</clus>
<clus scale="  124.529">  2  6  1 -1</clus>
<clus scale="  129.109">  2  7  1 -1</clus>
<clus scale="  124.529">  2  4  1 -1</clus>
</clustering>
</event>
<event>
 7      2 +6.5488130e-01 2.45608100e+02 7.54677100e-03 1.02680000e-01
        3 -1    0    0  501    0 +0.0000000000e+00 +0.0000000000e+00 +2.4908282321e+02 2.4908282321e+02 0.0000000000e+00 0.0000e+00 -1.0000e+00
       -3 -1    0    0    0  501 -0.0000000000e+00 -0.0000000000e+00 -4.2843924588e+02 4.2843924588e+02 0.0000000000e+00 0.0000e+00 1.0000e+00
       23  2    1    2    0    0 -9.2585986189e+01 -8.3058465078e+00 +1.7814204335e+02 2.2010473819e+02 8.9835161500e+01 0.0000e+00 0.0000e+00
      -11  1    3    3    0    0 -8.8592395404e+01 -4.0073648745e+01 +1.3229211516e+02 1.6418195266e+02 0.0000000000e+00 0.0000e+00 -1.0000e+00
       11  1    3    3    0    0 -3.9935907849e+00 +3.1767802238e+01 +4.5849928187e+01 5.5922785528e+01 0.0000000000e+00 0.0000e+00 1.0000e+00
        3  1    1    2  502    0 -7.1963110051e+01 +1.9439184694e+01 -1.3263570540e+01 7.5713231428e+01 0.0000000000e+00 0.0000e+00 -1.0000e+00
       -3  1    1    2    0  502 +1.6454909624e+02 -1.1133338186e+01 -3.4423489548e+02 3.8170409947e+02 0.0000000000e+00 0.0000e+00 1.0000e+00
<scales pt_clust_4="13000.00000" pt_clust_5="13000.00000" pt_clust_6="13000.00000" pt_clust_7="164.92531"></scales>
<mgrwt>
<rscale>  1 0.24560814E+03</rscale>
<asrwt>  1 0.16492531E+03</asrwt>
<pdfrwt beam="1">  1        3 0.38320434E-01 0.24560814E+03</pdfrwt>
<pdfrwt beam="2">  2       -3       21 0.65913730E-01 0.51146108E-02 0.16492531E+03 0.24560814E+03</pdfrwt>
<totfact> 0.78604442E-01</totfact>
</mgrwt>
<clustering>
<clus scale="   89.835">  4  5 -1 -1</clus>
<clus scale="   74.542">  4  6 -1 -1</clus>
<clus scale="  164.925">  2  7  1 -1</clus>
<clus scale="  245.608">  1  4  2 -1</clus>
</clustering>
</event>
<event>
 7      2 +6.5488130e-01 3.54394800e+02 7.54677100e-03 1.00462600e-01
       21 -1    0    0  501  502 +0.0000000000e+00 +0.0000000000e+00 +8.3601516680e+02 8.3601516680e+02 0.0000000000e+00 0.0000e+00 1.0000e+00
        1 -1    0    0  503    0 -0.0000000000e+00 -0.0000000000e+00 -8.2730083561e+02 8.2730083561e+02 0.0000000000e+00 0.0000e+00 -1.0000e+00
       23  2    1    2    0    0 +7.7074166824e+00 -1.3237047409e+02 -3.5244776782e+02 3.8737887403e+02 9.0893433874e+01 0.0000e+00 0.0000e+00
      -11  1    3    3    0    0 +4.0911510947e+01 -1.1550170523e+02 -2.5103993500e+02 2.7934824968e+02 0.0000000000e+00 0.0000e+00 1.0000e+00
       11  1    3    3    0    0 -3.3204094265e+01 -1.6868768863e+01 -1.0140783282e+02 1.0803062434e+02 0.0000000000e+00 0.0000e+00 -1.0000e+00
       21  1    1    2  503  502 -7.8610302816e+01 +3.5812330333e+02 +7.4195973386e+02 8.2760867973e+02 0.0000000000e+00 0.0000e+00 1.0000e+00
        1  1    1    2  501    0 +7.0902886134e+01 -2.2575282924e+02 -3.8079763485e+02 4.4832844866e+02 0.0000000000e+00 0.0000e+00 -1.0000e+00
<scales pt_clust_4="13000.00000" pt_clust_5="13000.00000" pt_clust_6="354.39476" pt_clust_7="13000.00000"></scales>
<mgrwt>
<rscale>  1 0.29084276E+03</rscale>
<asrwt>  1 0.35439476E+03</asrwt>
<pdfrwt beam="1">  1       21 0.12861772E+00 0.35439476E+03</pdfrwt>
<pdfrwt beam="2">  1        1 0.12727705E+00 0.16075747E+03</pdfrwt>
<totfact> 0.95240106E-01</totfact>
</mgrwt>
<clustering>
<clus scale="   90.893">  4  5 -1 -1</clus>
<clus scale="  160.757">  2  4  1 -1</clus>
<clus scale="  354.395">  1  6  2 -1</clus>
<clus scale="  354.395">  1  4  2 -1</clus>
</clustering>
</event>
<event>
 7      2 +6.5488130e-01 2.26919100e+02 7.54677100e-03 1.03753500e-01
       21 -1    0    0  501  502 +0.0000000000e+00 +0.0000000000e+00 +3.0752327498e+02 3.0752327498e+02 0.0000000000e+00 0.0000e+00 -1.0000e+00
        5 -1    0    0  503    0 -0.0000000000e+00 -0.0000000000e+00 -1.8648803346e+02 1.8648803346e+02 0.0000000000e+00 0.0000e+00 -1.0000e+00
       23  2    1    2    0    0 +6.1996777274e+01 +5.5391782971e+01 +9.4071476108e+01 1.5418450693e+02 8.9507371470e+01 0.0000e+00 0.0000e+00
      -11  1    3    3    0    0 +8.4257847347e+01 +5.3147600854e+01 +7.9867848811e+01 1.2768291033e+02 0.0000000000e+00 0.0000e+00 -1.0000e+00
       11  1    3    3    0    0 -2.2261070073e+01 +2.2441821176e+00 +1.4203627297e+01 2.6501596604e+01 0.0000000000e+00 0.0000e+00 1.0000e+00
       21  1    1    2  503  502 +1.5902405828e+00 -1.3309291879e+02 -1.0814375906e+02 1.7149730762e+02 0.0000000000e+00 0.0000e+00 -1.0000e+00
        5  1    1    2  501    0 -6.3587017857e+01 +7.7701135816e+01 +1.3510752447e+02 1.6832949389e+02 0.0000000000e+00 0.0000e+00 -1.0000e+00
<scales pt_clust_4="13000.00000" pt_clust_5="13000.00000" pt_clust_6="133.10242" pt_clust_7="13000.00000"></scales>
<mgrwt>
<rscale>  1 0.22691907E+03</rscale>
<asrwt>  1 0.13310242E+03</asrwt>
<pdfrwt beam="1">  1       21 0.47311273E-01 0.22691907E+03</pdfrwt>
<pdfrwt beam="2">  2        5        5 0.28690467E-01 0.42243222E-02 0.13310242E+03 0.22691907E+03</pdfrwt>
<totfact> 0.20470450E+01</totfact>
</mgrwt>
<clustering>
<clus scale="   89.507">  4  5 -1 -1</clus>
<clus scale="  100.403">  4  7 -1 -1</clus>
<clus scale="  133.102">  2  6  1 -1</clus>
<clus scale="  226.919">  1  4  2 -1</clus>
</clustering>
</event>
<event>
 7      2 +6.5488130e-01 1.12269200e+02 7.54677100e-03 1.15085800e-01
       21 -1    0    0  503  502 +0.0000000000e+00 +0.0000000000e+00 +1.3259286443e+02 1.3259286443e+02 0.0000000000e+00 0.0000e+00 1.0000e+00
       -3 -1    0    0    0  501 -0.0000000000e+00 -0.0000000000e+00 -1.9973110587e+02 1.9973110587e+02 0.0000000000e+00 0.0000e+00 1.0000e+00
       23  2    1    2    0    0 -2.0431130439e+01 -1.3549138971e+00 -3.6412817523e+01 1.0230993654e+02 9.3392520855e+01 0.0000e+00 0.0000e+00
      -11  1    3    3    0    0 -5.1461820975e+01 -2.3357695269e+01 -1.4245058144e+01 5.8282266838e+01 0.0000000000e+00 0.0000e+00 1.0000e+00
       11  1    3    3    0    0 +3.1030690536e+01 +2.2002781372e+01 -2.2167759379e+01 4.4027669699e+01 0.0000000000e+00 0.0000e+00 -1.0000e+00
       21  1    1    2  503  501 +1.8484777293e+01 +1.1241985250e+02 +2.8616274856e+00 1.1396534183e+02 0.0000000000e+00 0.0000e+00 1.0000e+00
       -3  1    1    2    0  502 +1.9463531464e+00 -1.1106493860e+02 -3.3587051402e+01 1.1604869193e+02 0.0000000000e+00 0.0000e+00 1.0000e+00
<scales pt_clust_4="13000.00000" pt_clust_5="13000.00000" pt_clust_6="13000.00000" pt_clust_7="112.26920"></scales>
<mgrwt>
<rscale>  2 0.10785052E+03</rscale>
<asrwt>0</asrwt>
<pdfrwt beam="1">  1       21 0.20398902E-01 0.11226920E+03</pdfrwt>
<pdfrwt beam="2">  1       -3 0.30727862E-01 0.95610825E+02</pdfrwt>
<totfact> 0.22249210E+02</totfact>
</mgrwt>
<clustering>
<clus scale="   93.393">  4  5 -1 -1</clus>
<clus scale="   95.611">  2  4  1 -1</clus>
<clus scale="  112.269">  2  7  1 -1</clus>
<clus scale="  112.269">  1  4  2 -1</clus>
</clustering>
</event>
<event>
 7      2 +6.5488130e-01 3.01132600e+02 7.54677100e-03 1.00018400e-01
       -2 -1    0    0    0  501 -0.0000000000e+00 +0.0000000000e+00 +4.6237645641e+02 4.6237645641e+02 0.0000000000e+00 0.0000e+00 -1.0000e+00
        2 -1    0    0  502    0 +0.0000000000e+00 -0.0000000000e+00 -4.4147014039e+02 4.4147014039e+02 0.0000000000e+00 0.0000e+00 1.0000e+00
       23  2    1    2    0    0 +2.0770311601e+02 +1.9645267497e+02 +3.4542730751e+02 4.5771260216e+02 9.1905187558e+01 0.0000e+00 0.0000e+00
      -11  1    3    3    0    0 +3.3595776705e+01 +5.4722929400e+01 +3.0842317339e+01 7.1235691570e+01 0.0000000000e+00 0.0000e+00 1.0000e+00
       11  1    3    3    0    0 +1.7410733930e+02 +1.4172974557e+02 +3.1458499017e+02 3.8647691059e+02 0.0000000000e+00 0.0000e+00 -1.0000e+00
       21  1    1    2  502  503 +1.1751336053e+01 -3.0260668685e+00 -2.3138655842e+01 2.6127540525e+01 0.0000000000e+00 0.0000e+00 -1.0000e+00
       21  1    1    2  503  501 -2.1945445206e+02 -1.9342660810e+02 -3.0138233565e+02 4.2000645411e+02 0.0000000000e+00 0.0000e+00 1.0000e+00
<scales pt_clust_4="13000.00000" pt_clust_5="13000.00000" pt_clust_6="12.13470" pt_clust_7="286.76516"></scales>
<mgrwt>
<rscale>  0 0.30113256E+03</rscale>
<asrwt>  2 0.12134701E+02 0.28676516E+03</asrwt>
<pdfrwt beam="1">  3        2        2        2 0.67918483E-01 0.63909257E-01 0.70260460E-03 0.12134701E+02 0.28676516E+03 0.30113256E+03</pdfrwt>
<pdfrwt beam="2">  1       -2 0.71134840E-01 0.12134701E+02</pdfrwt>
<totfact> 0.60171154E+00</totfact>
</mgrwt>
<clustering>
<clus scale="   12.135">  2  6  1 -1</clus>
<clus scale="   91.905">  4  5 -1 -1</clus>
<clus scale="  286.765">  2  7  1 -1</clus>
<clus scale="   12.135">  2  4  1 -1</clus>
</clustering>
</event>
<event>
 7      2 +6.5488130e-01 1.72721400e+02 7.54677100e-03 1.08009600e-01
       21 -1    0    0  501  502 +0.0000000000e+00 +0.0000000000e+00 +9.7173560019e+01 9.7173560019e+01 0.0000000000e+00 0.0000e+00 -1.0000e+00
        2 -1    0    0  503    0 -0.0000000000e+00 -0.0000000000e+00 -2.5453906483e+03 2.5453906483e+03 0.0000000000e+00 0.0000e+00 -1.0000e+00
       23  2    1    2    0    0 -5.1866476698e+01 -1.1715088923e+02 -7.5074480561e+02 7.6681842068e+02 8.9321133520e+01 0.0000e+00 0.0000e+00
      -11  1    3    3    0    0 -2.3171694552e+01 -1.2341936661e+02 -6.4266551788e+02 6.5481923869e+02 0.0000000000e+00 0.0000e+00 1.0000e+00
       11  1    3    3    0    0 -2.8694782146e+01 +6.2684773802e+00 -1.0807928772e+02 1.1199918199e+02 0.0000000000e+00 0.0000e+00 -1.0000e+00
       21  1    1    2  503  502 -1.6351287246e+02 -4.1296099516e+01 -1.1865827287e+01 1.6906396764e+02 0.0000000000e+00 0.0000e+00 -1.0000e+00
        2  1    1    2  501    0 +2.1537934916e+02 +1.5844698875e+02 -1.6856064554e+03 1.7066818200e+03 0.0000000000e+00 0.0000e+00 -1.0000e+00
<scales pt_clust_4="13000.00000" pt_clust_5="13000.00000" pt_clust_6="172.72144" pt_clust_7="13000.00000"></scales>
<mgrwt>
<rscale>  1 0.16842914E+03</rscale>
<asrwt>  1 0.17272144E+03</asrwt>
<pdfrwt beam="1">  2       21       21 0.14949780E-01 0.14949780E-01 0.17272144E+03 0.17272144E+03</pdfrwt>
<pdfrwt beam="2">  1        2 0.39159852E+00 0.15618171E+03</pdfrwt>
<totfact> 0.24511384E+01</totfact>
</mgrwt>
<clustering>
<clus scale="   89.321">  4  5 -1 -1</clus>
<clus scale="  156.182">  2  4  1 -1</clus>
<clus scale="  172.721">  1  6  2 -1</clus>
<clus scale="  172.721">  1  4  2 -1</clus>
</clustering>
</event>
<event>
 6      2 +6.5488130e-01 3.40530700e+02 7.54677100e-03 9.84792600e-02
       -2 -1    0    0    0  501 -0.0000000000e+00 +0.0000000000e+00 +1.0689182602e+02 1.0689182602e+02 0.0000000000e+00 0.0000e+00 -1.0000e+00
       21 -1    0    0  501  502 +0.0000000000e+00 -0.0000000000e+00 -9.1606618383e+02 9.1606618383e+02 0.0000000000e+00 0.0000e+00 -1.0000e+00
      -15  1    1    2    0    0 +9.9909037077e+01 +2.1628704124e+02 -1.1722816860e+02 2.6553248603e+02 1.7770000000e+00 0.0000e+00 -1.0000e+00
       15  1    1    2    0    0 +4.8704168173e+01 -7.2313713723e+01 -1.2478963327e+02 1.5223987484e+02 1.7770000000e+00 0.0000e+00 1.0000e+00
       21  1    1    2  503  502 -6.1916210946e+00 -2.0164415116e+01 -8.0591747857e+01 8.3306480128e+01 0.0000000000e+00 0.0000e+00 -1.0000e+00
       -2  1    1    2    0  503 -1.4242158416e+02 -1.2380891240e+02 -4.8656480807e+02 5.2187916885e+02 0.0000000000e+00 0.0000e+00 -1.0000e+00
<scales pt_clust_3="13000.00000" pt_clust_4="13000.00000" pt_clust_5="14.06135" pt_clust_6="211.14713"></scales>
<mgrwt>
<rscale>  0 0.34053066E+03</rscale>
<asrwt>  2 0.14061350E+02 0.21114713E+03</asrwt>
<pdfrwt beam="1">  2       21        2 0.14093326E+00 0.26319537E-01 0.21114713E+03 0.34053066E+03</pdfrwt>
<pdfrwt beam="2">  1       -2 0.16444896E-01 0.21114713E+03</pdfrwt>
<totfact> 0.14875725E+01</totfact>
</mgrwt>
<clustering>
<clus scale="   14.061">  5  6 -1 -1</clus>
<clus scale="  163.599">  3  4 -1 -1</clus>
<clus scale="  211.147">  2  5  1 -1</clus>
<clus scale="  211.147">  2  3  1 -1</clus>
</clustering>
</event>
<event>
 7      2 +6.5488130e-01 7.15405300e+02 7.54677100e-03 9.01253100e-02
       21 -1    0    0  503  502 +0.0000000000e+00 +0.0000000000e+00 +8.7434721062e+01 8.7434721062e+01 0.0000000000e+00 0.0000e+00 1.0000e+00
        2 -1    0    0  502    0 -0.0000000000e+00 -0.0000000000e+00 -1.4633908432e+03 1.4633908432e+03 0.0000000000e+00 0.0000e+00 1.0000e+00
       23  2    1    2    0    0 +4.2526371232e+01 -2.6702298115e+02 -2.1049787493e+02 3.5429606144e+02 9.0036543066e+01 0.0000e+00 0.0000e+00
      -11  1    3    3    0    0 +5.3215139226e+01 -2.6243140553e+02 -1.8270129347e+02 3.2416331731e+02 0.0000000000e+00 0.0000e+00 1.0000e+00
       11  1    3    3    0    0 -1.0688767993e+01 -4.5915756200e+00 -2.7796581464e+01 3.0132744133e+01 0.0000000000e+00 0.0000e+00 -1.0000e+00
       21  1    1    2  503  501 -1.8459290185e+01 +1.2190791322e+02 -4.9504729660e+02 5.1017066808e+02 0.0000000000e+00 0.0000e+00 1.0000e+00
        2  1    1    2  501    0 -2.4067081048e+01 +1.4511506794e+02 -6.7041095063e+02 6.8635883477e+02 0.0000000000e+00 0.0000e+00 1.0000e+00
<scales pt_clust_4="13000.00000" pt_clust_5="13000.00000" pt_clust_6="15.32422" pt_clust_7="13000.00000"></scales>
<mgrwt>
<rscale>  1 0.71540526E+03</rscale>
<asrwt>  1 0.15324217E+02</asrwt>
<pdfrwt beam="1">  1       21 0.13451496E-01 0.71540526E+03</pdfrwt>
<pdfrwt beam="2">  1        2 0.22513704E+00 0.71540526E+03</pdfrwt>
<totfact> 0.12809046E+02</totfact>
</mgrwt>
<clustering>
<clus scale="   15.324">  6  7 -1 -1</clus>
<clus scale="   90.037">  4  5 -1 -1</clus>
<clus scale="  270.906">  4  6 -1 -1</clus>
<clus scale="  715.405">  1  4  2 -1</clus>
</clustering>
</event>
<event>
 7      2 +6.5488130e-01 9.67624000e+01 7.54677100e-03 1.17217100e-01
       -5 -1    0    0    0  501 -0.0000000000e+00 +0.0000000000e+00 +6.6238587023e+02 6.6238587023e+02 0.0000000000e+00 0.0000e+00 1.0000e+00
       21 -1    0    0  503  502 +0.0000000000e+00 -0.0000000000e+00 -1.1060262910e+02 1.1060262910e+02 0.0000000000e+00 0.0000e+00 1.0000e+00
       23  2    1    2    0    0 -4.0896344808e+00 +2.0483223547e+01 +3.0119443776e+02 3.1467796767e+02 8.8700881865e+01 0.0000e+00 0.0000e+00
      -15  1    3    3    0    0 +3.1825173372e+01 +3.8406571333e+01 +1.4294876100e+02 1.5141140110e+02 1.7770000000e+00 0.0000e+00 1.0000e+00
       15  1    3    3    0    0 -3.5914807853e+01 -1.7923347786e+01 +1.5824567676e+02 1.6326656657e+02 1.7770000000e+00 0.0000e+00 -1.0000e+00
       21  1    1    2  503  501 +8.6262645005e+01 +4.2981758110e+01 -7.1433153701e+01 1.1996404003e+02 0.0000000000e+00 0.0000e+00 1.0000e+00
       -5  1    1    2    0  502 -8.2173010525e+01 -6.3464981657e+01 +3.2202195708e+02 3.3834649163e+02 0.0000000000e+00 0.0000e+00 1.0000e+00
<scales pt_clust_4="13000.00000" pt_clust_5="13000.00000" pt_clust_6="13000.00000" pt_clust_7="96.76240"></scales>
<mgrwt>
<rscale>  2 0.95321696E+02</rscale>
<asrwt>0</asrwt>
<pdfrwt beam="1">  1       21 0.17015789E-01 0.96762398E+02</pdfrwt>
<pdfrwt beam="2">  1       -5 0.10190552E+00 0.91127021E+02</pdfrwt>
<totfact> 0.78265910E+00</totfact>
</mgrwt>
<clustering>
<clus scale="   88.701">  4  5 -1 -1</clus>
<clus scale="   91.127">  1  4  2 -1</clus>
<clus scale="   96.762">  1  7  2 -1</clus>
<clus scale="   96.762">  2  4  1 -1</clus>
</clustering>
</event>
<event>
 7      2 +6.5488130e-01 3.36385100e+02 7.54677100e-03 9.86303600e-02
        2 -1    0    0  503    0 -0.0000000000e+00 +0.0000000000e+00 +1.2934831725e+03 1.2934831725e+03 0.0000000000e+00 0.0000e+00 -1.0000e+00
       21 -1    0    0  501  502 +0.0000000000e+00 -0.0000000000e+00 -1.3622467536e+02 1.3622467536e+02 0.0000000000e+00 0.0000e+00 1.0000e+00
       23  2    1    2    0    0 +9.1016163384e+01 +3.3114671723e+02 +2.5296634667e+02 4.3660285981e+02 9.3209411100e+01 0.0000e+00 0.0000e+00
      -13  1    3    3    0    0 +1.0301923814e+02 +3.0155548433e+02 +2.0476716345e+02 3.7878524890e+02 0.0000000000e+00 0.0000e+00 1.0000e+00
       13  1    3    3    0    0 -1.2003074760e+01 +2.9591232904e+01 +4.8199183224e+01 5.7817610915e+01 0.0000000000e+00 0.0000e+00 -1.0000e+00
       21  1    1    2  503  502 +7.7443182231e+00 -5.4171305786e+01 +4.4092685318e+02 4.4430957078e+02 0.0000000000e+00 0.0000e+00 1.0000e+00
        2  1    1    2  501    0 -9.8760481607e+01 -2.7697541144e+02 +4.6336529724e+02 5.4879541722e+02 0.0000000000e+00 0.0000e+00 -1.0000e+00
<scales pt_clust_4="13000.00000" pt_clust_5="13000.00000" pt_clust_6="54.72207" pt_clust_7="323.21364"></scales>
<mgrwt>
<rscale>  0 0.33638512E+03</rscale>
<asrwt>  2 0.54722069E+02 0.32321364E+03</asrwt>
<pdfrwt beam="1">  2       21       -2 0.20957643E-01 0.40027741E-03 0.32321364E+03 0.33638512E+03</pdfrwt>
<pdfrwt beam="2">  2        2        2 0.19899740E+00 0.12843155E+00 0.54722069E+02 0.33638512E+03</pdfrwt>
<totfact> 0.68291713E+01</totfact>
</mgrwt>
<clustering>
<clus scale="   54.722">  1  6  2 -1</clus>
<clus scale="   93.209">  4  5 -1 -1</clus>
<clus scale="  323.214">  2  7  1 -1</clus>
<clus scale="  323.214">  2  4  1 -1</clus>
</clustering>
</event>
<event>
 7      2 +6.5488130e-01 4.29661300e+02 7.54677100e-03 9.56976800e-02
        2 -1    0    0  502    0 -0.0000000000e+00 +0.0000000000e+00 +1.0724915161e+03 1.0724915161e+03 0.0000000000e+00 0.0000e+00 1.0000e+00
       21 -1    0    0  503  502 +0.0000000000e+00 -0.0000000000e+00 -4.3032706350e+01 4.3032706350e+01 0.0000000000e+00 0.0000e+00 1.0000e+00
       23  2    1    2    0    0 +1.1970873604e+02 +1.0471317647e+02 +3.2884896215e+02 3.7660863065e+02 9.1637273864e+01 0.0000e+00 0.0000e+00
      -15  1    3    3    0    0 +7.3947377579e+01 +4.0068332228e+01 +2.5419513719e+02 2.6775363937e+02 1.7770000000e+00 0.0000e+00 -1.0000e+00
       15  1    3    3    0    0 +4.5761358462e+01 +6.4644844245e+01 +7.4653824969e+01 1.0885499128e+02 1.7770000000e+00 0.0000e+00 1.0000e+00
       21  1    1    2  503  501 -1.4831429737e+02 -3.4635347820e+01 +3.7766992508e+02 4.0722390700e+02 0.0000000000e+00 0.0000e+00 1.0000e+00
        2  1    1    2  501    0 +2.8605561330e+01 -7.0077828653e+01 +3.2293992253e+02 3.3169168481e+02 0.0000000000e+00 0.0000e+00 1.0000e+00
<scales pt_clust_4="13000.00000" pt_clust_5="13000.00000" pt_clust_6="121.79156" pt_clust_7="13000.00000"></scales>
<mgrwt>
<rscale>  1 0.42966132E+03</rscale>
<asrwt>  1 0.12179156E+03</asrwt>
<pdfrwt beam="1">  1       21 0.66204172E-02 0.42966132E+03</pdfrwt>
<pdfrwt beam="2">  1        2 0.16499867E+00 0.42966132E+03</pdfrwt>
<totfact> 0.56120973E+02</totfact>
</mgrwt>
<clustering>
<clus scale="   91.637">  4  5 -1 -1</clus>
<clus scale="  121.792">  6  7 -1 -1</clus>
<clus scale="  234.824">  4  6 -1 -1</clus>
<clus scale="  429.661">  2  4  1 -1</clus>
</clustering>
</event>
<event>
 7      2 +6.5488130e-01 1.11342200e+02 7.54677100e-03 1.14875700e-01
        4 -1    0    0  503    0 -0.0000000000e+00 +0.0000000000e+00 +1.1713556942e+02 1.1713556942e+02 0.0000000000e+00 0.0000e+00 1.0000e+00
       21 -1    0    0  501  502 +0.0000000000e+00 -0.0000000000e+00 -3.3478742459e+02 3.3478742459e+02 0.0000000000e+00 0.0000e+00 1.0000e+00
       23  2    1    2    0    0 +2.5310697303e+01 +3.8836570371e+01 +3.7049297495e+01 1.0947177623e+02 9.1991895027e+01 0.0000e+00 0.0000e+00
      -11  1    3    3    0    0 +4.9141656110e+01 +4.0278552176e+01 -2.1482663503e+00 6.3575775095e+01 0.0000000000e+00 0.0000e+00 1.0000e+00
       11  1    3    3    0    0 -2.3830958806e+01 -1.4419818050e+00 +3.9197563845e+01 4.5896001139e+01 0.0000000000e+00 0.0000e+00 -1.0000e+00
       21  1    1    2  503  502 -1.1027583778e+02 +3.4467454286e+01 -1.1199365737e+02 1.6090787766e+02 0.0000000000e+00 0.0000e+00 1.0000e+00
        4  1    1    2  501    0 +8.4965140474e+01 -7.3304024657e+01 -1.4270749529e+02 1.8154334011e+02 0.0000000000e+00 0.0000e+00 1.0000e+00
<scales pt_clust_4="13000.00000" pt_clust_5="13000.00000" pt_clust_6="13000.00000" pt_clust_7="111.34223"></scales>
<mgrwt>
<rscale>  1 0.10919849E+03</rscale>
<asrwt>  1 0.11134223E+03</asrwt>
<pdfrwt beam="1">  2       21       -4 0.51505758E-01 0.51505758E-01 0.11134223E+03 0.11134223E+03</pdfrwt>
<pdfrwt beam="2">  1        4 0.18020857E-01 0.10301174E+03</pdfrwt>
<totfact> 0.63404092E+01</totfact>
</mgrwt>
<clustering>
<clus scale="   91.992">  4  5 -1 -1</clus>
<clus scale="  103.012">  1  4  2 -1</clus>
<clus scale="  111.342">  2  7  1 -1</clus>
<clus scale="  111.342">  2  4  1 -1</clus>
</clustering>
</event>
<event>
 7      2 +6.5488130e-01 1.93505400e+02 7.54677100e-03 1.07114000e-01
        2 -1    0    0  503    0 +0.0000000000e+00 +0.0000000000e+00 +1.7583343290e+03 1.7583343290e+03 0.0000000000e+00 0.0000e+00 -1.0000e+00
       -2 -1    0    0    0  501 -0.0000000000e+00 -0.0000000000e+00 -1.7017931760e+02 1.7017931760e+02 0.0000000000e+00 0.0000e+00 1.0000e+00
       23  2    1    2    0    0 +9.4768934138e+01 +5.0834501202e+01 -9.8424210548e+01 1.7243870858e+02 9.2100410447e+01 0.0000e+00 0.0000e+00
      -13  1    3    3    0    0 +6.6906971208e+01 +7.3186008488e+01 -4.6768431806e+01 1.0963585567e+02 0.0000000000e+00 0.0000e+00 1.0000e+00
       13  1    3    3    0    0 +2.7861962930e+01 -2.2351507286e+01 -5.1655778742e+01 6.2802852910e+01 0.0000000000e+00 0.0000e+00 -1.0000e+00
       21  1    1    2  502  501 -1.5773170809e+02 +1.3469108624e+02 +3.6303910715e+02 4.1811287205e+02 0.0000000000e+00 0.0000e+00 1.0000e+00
       21  1    1    2  503  502 +6.2962773955e+01 -1.8552558744e+02 +1.3235401148e+03 1.3379620659e+03 0.0000000000e+00 0.0000e+00 -1.0000e+00
<scales pt_clust_4="13000.00000" pt_clust_5="13000.00000" pt_clust_6="193.50537" pt_clust_7="13000.00000"></scales>
<mgrwt>
<rscale>  2 0.17896910E+03</rscale>
<asrwt>0</asrwt>
<pdfrwt beam="1">  1        2 0.27051296E+00 0.19350537E+03</pdfrwt>
<pdfrwt beam="2">  1       -2 0.26181435E-01 0.14159019E+03</pdfrwt>
<totfact> 0.18789734E+00</totfact>
</mgrwt>
<clustering>
<clus scale="   92.100">  4  5 -1 -1</clus>
<clus scale="  141.590">  2  4  1 -1</clus>
<clus scale="  193.505">  2  6  1 -1</clus>
<clus scale="  193.505">  1  4  2 -1</clus>
</clustering>
</event>
<event>
 7      2 +6.5488130e-01 2.13843500e+02 7.54677100e-03 1.04573300e-01
       21 -1    0    0  501  502 +0.0000000000e+00 +0.0000000000e+00 +5.8416632079e+01 5.8416632079e+01 0.0000000000e+00 0.0000e+00 -1.0000e+00
        2 -1    0    0  503    0 -0.0000000000e+00 -0.0000000000e+00 -2.5910060773e+03 2.5910060773e+03 0.0000000000e+00 0.0000e+00 1.0000e+00
       23  2    1    2    0    0 -1.8893625741e+02 -3.0212508899e+00 -1.6431277850e+03 1.6564547712e+03 9.0925540178e+01 0.0000e+00 0.0000e+00
      -13  1    3    3    0    0 -1.7155290611e+02 +2.5205454543e+01 -1.2563658663e+03 1.2682747749e+03 0.0000000000e+00 0.0000e+00 1.0000e+00
       13  1    3    3    0    0 -1.7383351307e+01 -2.8226705433e+01 -3.8676191864e+02 3.8817999628e+02 0.0000000000e+00 0.0000e+00 -1.0000e+00
       21  1    1    2  503  502 +2.2882732073e+02 -2.1340481141e+01 -2.0819847492e+02 3.1010315027e+02 0.0000000000e+00 0.0000e+00 -1.0000e+00
        2  1    1    2  501    0 -3.9891063321e+01 +2.4361732031e+01 -6.8126318532e+02 6.8286478793e+02 0.0000000000e+00 0.0000e+00 1.0000e+00
<scales pt_clust_4="13000.00000" pt_clust_5="13000.00000" pt_clust_6="193.54992" pt_clust_7="46.74177"></scales>
<mgrwt>
<rscale>  0 0.21384346E+03</rscale>
<asrwt>  2 0.46741770E+02 0.19354992E+03</asrwt>
<pdfrwt beam="1">  3       21       -2       -2 0.89871765E-02 0.64981657E-02 0.12272417E-03 0.46741770E+02 0.19354992E+03 0.21384346E+03</pdfrwt>
<pdfrwt beam="2">  1        2 0.39861622E+00 0.46741770E+02</pdfrwt>
<totfact> 0.10398944E+02</totfact>
</mgrwt>
<clustering>
<clus scale="   46.742">  1  7  2 -1</clus>
<clus scale="   90.926">  4  5 -1 -1</clus>
<clus scale="  193.550">  1  6  2 -1</clus>
<clus scale="   46.742">  1  4  2 -1</clus>
</clustering>
</event>
<event>
 7      2 +6.5488130e-01 3.89702400e+02 7.54677100e-03 9.68461900e-02
       21 -1    0    0  501  502 +0.0000000000e+00 +0.0000000000e+00 +7.4432616658e+01 7.4432616658e+01 0.0000000000e+00 0.0000e+00 1.0000e+00
       21 -1    0    0  502  503 -0.0000000000e+00 -0.0000000000e+00 -6.2685248888e+02 6.2685248888e+02 0.0000000000e+00 0.0000e+00 -1.0000e+00
       23  2    1    2    0    0 -7.2298027218e+00 -1.7496121856e+02 -2.9155423791e+02 3.4975629479e+02 8.1620426713e+01 0.0000e+00 0.0000e+00
      -13  1    3    3    0    0 +9.6822076008e+00 -1.2108274581e+02 -2.5509489494e+02 2.8253881486e+02 0.0000000000e+00 0.0000e+00 -1.0000e+00
       13  1    3    3    0    0 -1.6912010323e+01 -5.3878472750e+01 -3.6459342969e+01 6.7217479934e+01 0.0000000000e+00 0.0000e+00 1.0000e+00
        4  1    1    2  501    0 -2.8928552384e+01 -1.7177457387e+01 -1.3556717025e+01 3.6272727521e+01 0.0000000000e+00 0.0000e+00 -1.0000e+00
       -4  1    1    2    0  503 +3.6158355106e+01 +1.9213867595e+02 -2.4730891728e+02 3.1525608322e+02 0.0000000000e+00 0.0000e+00 1.0000e+00
<scales pt_clust_4="13000.00000" pt_clust_5="13000.00000" pt_clust_6="33.64411" pt_clust_7="13000.00000"></scales>
<mgrwt>
<rscale>  1 0.38970240E+03</rscale>
<asrwt>  1 0.33644111E+02</asrwt>
<pdfrwt beam="1">  2       21       -4 0.11451173E-01 0.92486516E-02 0.33644111E+02 0.38970240E+03</pdfrwt>
<pdfrwt beam="2">  1       21 0.96438837E-01 0.33644111E+02</pdfrwt>
<totfact> 0.12292902E+03</totfact>
</mgrwt>
<clustering>
<clus scale="   33.644">  1  6  2 -1</clus>
<clus scale="   81.620">  4  5 -1 -1</clus>
<clus scale="  184.040">  4  7 -1 -1</clus>
<clus scale="   33.644">  1  4  2 -1</clus>
</clustering>
</event>
<event>
 7      2 +6.5488130e-01 1.98764300e+02 7.54677100e-03 1.05601600e-01
       21 -1    0    0  503  502 +0.0000000000e+00 +0.0000000000e+00 +9.0288416346e+01 9.0288416346e+01 0.0000000000e+00 0.0000e+00 1.0000e+00
       -1 -1    0    0    0  501 -0.0000000000e+00 -0.0000000000e+00 -4.5863159755e+02 4.5863159755e+02 0.0000000000e+00 0.0000e+00 1.0000e+00
       23  2    1    2    0    0 -1.2017448207e+02 -1.3247824478e+02 -2.2501798798e+02 3.0199691206e+02 9.2610196528e+01 0.0000e+00 0.0000e+00
      -11  1    3    3    0    0 -5.8900699838e+01 -4.4363127662e+01 -3.0424289085e+01 7.9768520757e+01 0.0000000000e+00 0.0000e+00 -1.0000e+00
       11  1    3    3    0    0 -6.1273782234e+01 -8.8115117115e+01 -1.9459369889e+02 2.2222839131e+02 0.0000000000e+00 0.0000e+00 1.0000e+00
       21  1    1    2  503  501 -1.4492288081e+01 +2.1182317028e+01 -2.5630993102e+01 3.6272093624e+01 0.0000000000e+00 0.0000e+00 1.0000e+00
       -1  1    1    2    0  502 +1.3466677015e+02 +1.1129592775e+02 -1.1769420013e+02 2.1065100821e+02 0.0000000000e+00 0.0000e+00 1.0000e+00
<scales pt_clust_4="13000.00000" pt_clust_5="13000.00000" pt_clust_6="25.66548" pt_clust_7="175.87096"></scales>
<mgrwt>
<rscale>  0 0.19876429E+03</rscale>
<asrwt>  2 0.25665482E+02 0.17587096E+03</asrwt>
<pdfrwt beam="1">  2       21        1 0.13890526E-01 0.82333234E-03 0.17587096E+03 0.19876429E+03</pdfrwt>
<pdfrwt beam="2">  2       -1       -1 0.70558707E-01 0.61639021E-01 0.25665482E+02 0.19876429E+03</pdfrwt>
<totfact> 0.18184214E+02</totfact>
</mgrwt>
<clustering>
<clus scale="   25.665">  2  6  1 -1</clus>
<clus scale="   92.610">  4  5 -1 -1</clus>
<clus scale="  175.871">  1  7  2 -1</clus>
<clus scale="  175.871">  1  4  2 -1</clus>
</clustering>
</event>
<event>
 7      2 +6.5488130e-01 1.75157900e+02 7.54677100e-03 1.07429900e-01
       21 -1    0    0  501  502 +0.0000000000e+00 +0.0000000000e+00 +4.9552848121e+02 4.9552848121e+02 0.0000000000e+00 0.0000e+00 1.0000e+00
       -1 -1    0    0    0  501 -0.0000000000e+00 -0.0000000000e+00 -1.1271923839e+02 1.1271923839e+02 0.0000000000e+00 0.0000e+00 1.0000e+00
       23  2    1    2    0    0 -2.6299131864e+00 -1.4379388671e+02 -7.0806627091e-01 1.7043379913e+02 9.1452611939e+01 0.0000e+00 0.0000e+00
      -11  1    3    3    0    0 -3.6854860250e+01 -1.2710049526e+02 +4.6029371538e-01 1.3233679945e+02 0.0000000000e+00 0.0000e+00 1.0000e+00
       11  1    3    3    0    0 +3.4224947064e+01 -1.6693391453e+01 -1.1683599863e+00 3.8096999682e+01 0.0000000000e+00 0.0000e+00 -1.0000e+00
       21  1    1    2  503  502 -4.3332913169e+00 -3.0265703396e+01 +2.6075521616e+01 4.0183616602e+01 0.0000000000e+00 0.0000e+00 1.0000e+00
       -1  1    1    2    0  503 +6.9632045033e+00 +1.7405959011e+02 +3.5744178747e+02 3.9763030387e+02 0.0000000000e+00 0.0000e+00 1.0000e+00
<scales pt_clust_4="13000.00000" pt_clust_5="13000.00000" pt_clust_6="30.57434" pt_clust_7="149.38774"></scales>
<mgrwt>
<rscale>  0 0.17515787E+03</rscale>
<asrwt>  2 0.30574339E+02 0.14938774E+03</asrwt>
<pdfrwt beam="1">  3       21       21        1 0.76235150E-01 0.66367445E-01 0.28537822E-02 0.30574339E+02 0.14938774E+03 0.17515787E+03</pdfrwt>
<pdfrwt beam="2">  1       -1 0.17341422E-01 0.30574339E+02</pdfrwt>
<totfact> 0.88168021E+01</totfact>
</mgrwt>
<clustering>
<clus scale="   30.574">  1  6  2 -1</clus>
<clus scale="   91.453">  4  5 -1 -1</clus>
<clus scale="  149.388">  1  7  2 -1</clus>
<clus scale="   30.574">  1  4  2 -1</clus>
</clustering>
</event>
<event>
 7      2 +6.5488130e-01 1.85906600e+02 7.54677100e-03 1.06560500e-01
       -3 -1    0    0    0  501 -0.0000000000e+00 +0.0000000000e+00 +1.1429403726e+02 1.1429403726e+02 0.0000000000e+00 0.0000e+00 1.0000e+00
        1 -1    0    0  501    0 +0.0000000000e+00 -0.0000000000e+00 -1.2245090116e+03 1.2245090116e+03 0.0000000000e+00 0.0000e+00 1.0000e+00
       23  2    1    2    0    0 -2.2794474742e+01 +1.2276536116e+02 -3.3746232427e+01 1.5739815616e+02 8.9690854484e+01 0.0000e+00 0.0000e+00
      -13  1    3    3    0    0 -3.2748373642e+00 +9.5355163586e+01 -6.1724182817e+01 1.1363629054e+02 0.0000000000e+00 0.0000e+00 -1.0000e+00
       13  1    3    3    0    0 -1.9519637378e+01 +2.7410197577e+01 +2.7977950390e+01 4.3761865621e+01 0.0000000000e+00 0.0000e+00 1.0000e+00
        1  1    1    2  502    0 +1.5033876428e+01 -1.6602675679e+02 -1.1122845696e+03 1.1247079021e+03 0.0000000000e+00 0.0000e+00 1.0000e+00
       -3  1    1    2    0  502 +7.7605983138e+00 +4.3261395631e+01 +3.5815827610e+01 5.6696990622e+01 0.0000000000e+00 0.0000e+00 1.0000e+00
<scales pt_clust_4="13000.00000" pt_clust_5="13000.00000" pt_clust_6="162.83991" pt_clust_7="43.95197"></scales>
<mgrwt>
<rscale>  0 0.18590659E+03</rscale>
<asrwt>  2 0.43951965E+02 0.16283991E+03</asrwt>
<pdfrwt beam="1">  1        1 0.18838600E+00 0.18590659E+03</pdfrwt>
<pdfrwt beam="2">  3       -3       21       -1 0.17583698E-01 0.10317403E-01 0.25267425E-03 0.43951965E+02 0.16283991E+03 0.18590659E+03</pdfrwt>
<totfact> 0.46297581E+00</totfact>
</mgrwt>
<clustering>
<clus scale="   43.952">  1  7  2 -1</clus>
<clus scale="   89.691">  4  5 -1 -1</clus>
<clus scale="  162.840">  1  6  2 -1</clus>
<clus scale="  185.907">  2  4  1 -1</clus>
</clustering>
</event>
<event>
 7      2 +6.5488130e-01 2.17752400e+02 7.54677100e-03 1.04321700e-01
       21 -1    0    0  503  502 +0.0000000000e+00 +0.0000000000e+00 +8.7868883442e+01 8.7868883442e+01 0.0000000000e+00 0.0000e+00 -1.0000e+00
        2 -1    0    0  502    0 -0.0000000000e+00 -0.0000000000e+00 -9.6726958461e+02 9.6726958461e+02 0.0000000000e+00 0.0000e+00 -1.0000e+00
       23  2    1    2    0    0 +1.9347635585e+02 +4.4051417986e+01 -4.0866266717e+02 4.6307511556e+02 8.9776162805e+01 0.0000e+00 0.0000e+00
      -13  1    3    3    0    0 +1.8952541872e+02 +2.1425226294e+01 -3.8725316401e+02 4.3167573212e+02 0.0000000000e+00 0.0000e+00 -1.0000e+00
       13  1    3    3    0    0 +3.9509371304e+00 +2.2626191692e+01 -2.1409503158e+01 3.1399383436e+01 0.0000000000e+00 0.0000e+00 1.0000e+00
       21  1    1    2  503  501 +2.3125111409e+00 -1.1399244685e+01 +4.1295527898e+01 4.2902343894e+01 0.0000000000e+00 0.0000e+00 -1.0000e+00
        2  1    1    2  501    0 -1.9578886700e+02 -3.2652173301e+01 -5.1203356189e+02 5.4916100860e+02 0.0000000000e+00 0.0000e+00 -1.0000e+00
<scales pt_clust_4="13000.00000" pt_clust_5="13000.00000" pt_clust_6="11.63144" pt_clust_7="198.38447"></scales>
<mgrwt>
<rscale>  0 0.21775242E+03</rscale>
<asrwt>  2 0.11631444E+02 0.19838447E+03</asrwt>
<pdfrwt beam="1">  3       21       21       -2 0.13518289E-01 0.70303018E-02 0.32048018E-03 0.11631444E+02 0.19838447E+03 0.21775242E+03</pdfrwt>
<pdfrwt beam="2">  1        2 0.14881071E+00 0.11631444E+02</pdfrwt>
<totfact> 0.76049845E+02</totfact>
</mgrwt>
<clustering>
<clus scale="   11.631">  1  6  2 -1</clus>
<clus scale="   89.776">  4  5 -1 -1</clus>
<clus scale="  198.384">  1  7  2 -1</clus>
<clus scale="   11.631">  1  4  2 -1</clus>
</clustering>
</event>
<event>
 7      2 +6.5488130e-01 3.81539900e+02 7.54677100e-03 9.70988600e-02
        2 -1    0    0  503    0 -0.0000000000e+00 +0.0000000000e+00 +2.2558804751e+03 2.2558804751e+03 0.0000000000e+00 0.0000e+00 -1.0000e+00
       21 -1    0    0  501  502 +0.0000000000e+00 -0.0000000000e+00 -1.8941122316e+01 1.8941122316e+01 0.0000000000e+00 0.0000e+00 -1.0000e+00
       23  2    1    2    0    0 +1.2278938863e+02 +1.0088856844e+02 +7.9522448336e+02 8.1606752881e+02 9.1260590808e+01 0.0000e+00 0.0000e+00
      -11  1    3    3    0    0 +3.5134647051e+01 -1.4783866496e+01 +1.6213525817e+02 1.6655584071e+02 0.0000000000e+00 0.0000e+00 1.0000e+00
       11  1    3    3    0    0 +8.7654741583e+01 +1.1567243493e+02 +6.3308922519e+02 6.4951168810e+02 0.0000000000e+00 0.0000e+00 -1.0000e+00
       21  1    1    2  503  502 +1.5489172850e+01 +2.6783799607e+01 +1.3149697736e+02 1.3508790268e+02 0.0000000000e+00 0.0000e+00 -1.0000e+00
        2  1    1    2  501    0 -1.3827856148e+02 -1.2767236804e+02 +1.3102178920e+03 1.3236661659e+03 0.0000000000e+00 0.0000e+00 -1.0000e+00
<scales pt_clust_4="13000.00000" pt_clust_5="13000.00000" pt_clust_6="30.94005" pt_clust_7="13000.00000"></scales>
<mgrwt>
<rscale>  1 0.38153989E+03</rscale>
<asrwt>  1 0.30940045E+02</asrwt>
<pdfrwt beam="1">  2       21       21 0.29140206E-02 0.24656157E-02 0.30940045E+02 0.38153989E+03</pdfrwt>
<pdfrwt beam="2">  1        2 0.34705832E+00 0.30940045E+02</pdfrwt>
<totfact> 0.84630024E+02</totfact>
</mgrwt>
<clustering>
<clus scale="   30.940">  2  6  1 -1</clus>
<clus scale="   91.261">  4  5 -1 -1</clus>
<clus scale="  176.653">  4  7 -1 -1</clus>
<clus scale="   30.940">  2  4  1 -1</clus>
</clustering>
</event>
<event>
 7      2 +6.5488130e-01 3.07069200e+02 7.54677100e-03 9.97707500e-02
       21 -1    0    0  501  502 +0.0000000000e+00 +0.0000000000e+00 +5.9502677289e+01 5.9502677289e+01 0.0000000000e+00 0.0000e+00 1.0000e+00
        2 -1    0    0  503    0 -0.0000000000e+00 -0.0000000000e+00 -1.1585304966e+03 1.1585304966e+03 0.0000000000e+00 0.0000e+00 -1.0000e+00
       23  2    1    2    0    0 -9.0934779682e+00 +5.0970576624e+01 -9.0922187551e+02 9.1522729549e+02 9.0971932396e+01 0.0000e+00 0.0000e+00
      -11  1    3    3    0    0 +1.9119550881e+00 +7.5559856077e+01 -7.4324070431e+02 7.4707408734e+02 0.0000000000e+00 0.0000e+00 -1.0000e+00
       11  1    3    3    0    0 -1.1005433056e+01 -2.4589279453e+01 -1.6598117120e+02 1.6815320816e+02 0.0000000000e+00 0.0000e+00 1.0000e+00
       21  1    1    2  503  502 -3.7160535910e+01 -1.3423012757e+02 -9.6268231565e+01 1.6931097125e+02 0.0000000000e+00 0.0000e+00 1.0000e+00
        2  1    1    2  501    0 +4.6254013878e+01 +8.3259550941e+01 -9.3537712207e+01 1.3349490712e+02 0.0000000000e+00 0.0000e+00 -1.0000e+00
<scales pt_clust_4="13000.00000" pt_clust_5="13000.00000" pt_clust_6="139.27897" pt_clust_7="13000.00000"></scales>
<mgrwt>
<rscale>  1 0.30706916E+03</rscale>
<asrwt>  1 0.13927897E+03</asrwt>
<pdfrwt beam="1">  2       21       21 0.91542572E-02 0.24863337E-02 0.13927897E+03 0.30706916E+03</pdfrwt>
<pdfrwt beam="2">  1        2 0.17823548E+00 0.13927897E+03</pdfrwt>
<totfact> 0.32465914E+02</totfact>
</mgrwt>
<clustering>
<clus scale="   90.972">  4  5 -1 -1</clus>
<clus scale="   95.245">  4  7 -1 -1</clus>
<clus scale="  139.279">  1  6  2 -1</clus>
<clus scale="  139.279">  1  4  2 -1</clus>
</clustering>
</event>
<event>
 7      2 +6.5488130e-01 2.04673500e+02 7.54677100e-03 1.05187200e-01
       21 -1    0    0  501  502 +0.0000000000e+00 +0.0000000000e+00 +1.5706066389e+02 1.5706066389e+02 0.0000000000e+00 0.0000e+00 1.0000e+00
        1 -1    0    0  503    0 -0.0000000000e+00 -0.0000000000e+00 -5.3062264938e+02 5.3062264938e+02 0.0000000000e+00 0.0000e+00 -1.0000e+00
       23  2    1    2    0    0 +4.4845890201e+01 -8.5222937311e+01 -2.8757849230e+02 3.1770988578e+02 9.4678822222e+01 0.0000e+00 0.0000e+00
      -15  1    3    3    0    0 +6.9682451890e+01 -4.2611398086e+01 -2.1445588624e+02 2.2949043601e+02 1.7770000000e+00 0.0000e+00 1.0000e+00
       15  1    3    3    0    0 -2.4836561689e+01 -4.2611539225e+01 -7.3122606057e+01 8.8219449767e+01 1.7770000000e+00 0.0000e+00 -1.0000e+00
       21  1    1    2  503  502 -8.8011667142e+01 +1.3930516749e+02 +8.5078263690e+01 1.8544620297e+02 0.0000000000e+00 0.0000e+00 1.0000e+00
        1  1    1    2  501    0 +4.3165776941e+01 -5.4082230183e+01 -1.7106175689e+02 1.8452722452e+02 0.0000000000e+00 0.0000e+00 -1.0000e+00
<scales pt_clust_4="13000.00000" pt_clust_5="13000.00000" pt_clust_6="164.77859" pt_clust_7="13000.00000"></scales>
<mgrwt>
<rscale>  1 0.20467349E+03</rscale>
<asrwt>  1 0.16477859E+03</asrwt>
<pdfrwt beam="1">  2       21       21 0.24163179E-01 0.10683569E-02 0.16477859E+03 0.20467349E+03</pdfrwt>
<pdfrwt beam="2">  1        1 0.81634253E-01 0.16477859E+03</pdfrwt>
<totfact> 0.95742253E+01</totfact>
</mgrwt>
<clustering>
<clus scale="   94.679">  4  5 -1 -1</clus>
<clus scale="   69.197">  4  7 -1 -1</clus>
<clus scale="  164.779">  1  6  2 -1</clus>
<clus scale="  164.779">  1  4  2 -1</clus>
</clustering>
</event>
<event>
 6      1 +6.5488130e-01 5.31225500e+02 7.54677100e-03 9.32956000e-02
        2 -1    0    0  502    0 -0.0000000000e+00 +0.0000000000e+00 +1.7909790354e+02 1.7909790354e+02 0.0000000000e+00 0.0000e+00 -1.0000e+00
       21 -1    0    0  501  502 +0.0000000000e+00 -0.0000000000e+00 -3.9391936288e+02 3.9391936288e+02 0.0000000000e+00 0.0000e+00 1.0000e+00
       23  2    1    2    0    0 +7.0774939210e+01 +1.9112307448e+02 -2.8079097846e+02 3.5879985567e+02 9.1414666379e+01 0.0000e+00 0.0000e+00
      -11  1    3    3    0    0 +8.3691122603e+01 +1.0742981008e+02 -1.4633699051e+02 1.9989968206e+02 0.0000000000e+00 0.0000e+00 1.0000e+00
       11  1    3    3    0    0 -1.2916183392e+01 +8.3693264391e+01 -1.3445398794e+02 1.5890017361e+02 0.0000000000e+00 0.0000e+00 -1.0000e+00
        2  1    1    2  501    0 -7.0774939210e+01 -1.9112307448e+02 +6.5969519120e+01 2.1421741075e+02 0.0000000000e+00 0.0000e+00 -1.0000e+00
<scales pt_clust_4="13000.00000" pt_clust_5="13000.00000" pt_clust_6="13000.00000"></scales>
<mgrwt>
<rscale>  1 0.53122550E+03</rscale>
<asrwt>0</asrwt>
<pdfrwt beam="1">  1       21 0.60602978E-01 0.53122550E+03</pdfrwt>
<pdfrwt beam="2">  1        2 0.27553524E-01 0.53122550E+03</pdfrwt>
<totfact> 0.57713983E+02</totfact>
</mgrwt>
<clustering>
<clus scale="   91.415">  4  5 -1 -1</clus>
<clus scale="  203.807">  4  6 -1 -1</clus>
<clus scale="  531.225">  2  4  1 -1</clus>
</clustering>
</event>
<event>
 7      2 +6.5488130e-01 6.72480800e+02 7.54677100e-03 9.07660200e-02
        2 -1    0    0  502    0 -0.0000000000e+00 +0.0000000000e+00 +3.7170192179e+03 3.7170192179e+03 0.0000000000e+00 0.0000e+00 1.0000e+00
       21 -1    0    0  503  502 +0.0000000000e+00 -0.0000000000e+00 -3.0416203555e+01 3.0416203555e+01 0.0000000000e+00 0.0000e+00 1.0000e+00
       23  2    1    2    0    0 +1.8031415244e+02 +1.5060875995e+02 +2.8488226526e+03 2.8598809791e+03 8.9064676219e+01 0.0000e+00 0.0000e+00
      -13  1    3    3    0    0 +7.1206313724e+01 +1.1057186305e+02 +1.2719452159e+03 1.2787263618e+03 0.0000000000e+00 0.0000e+00 1.0000e+00
       13  1    3    3    0    0 +1.0910783872e+02 +4.0036896906e+01 +1.5768774367e+03 1.5811546173e+03 0.0000000000e+00 0.0000e+00 -1.0000e+00
       21  1    1    2  503  501 +1.0420178339e+01 +2.3827905475e+01 +3.1450472825e+01 4.0810310424e+01 0.0000000000e+00 0.0000e+00 -1.0000e+00
        2  1    1    2  501    0 -1.9073433078e+02 -1.7443666543e+02 +8.0632988896e+02 8.4674413196e+02 0.0000000000e+00 0.0000e+00 1.0000e+00
<scales pt_clust_4="13000.00000" pt_clust_5="13000.00000" pt_clust_6="55.56088" pt_clust_7="13000.00000"></scales>
<mgrwt>
<rscale>  1 0.67248082E+03</rscale>
<asrwt>  1 0.55560881E+02</asrwt>
<pdfrwt beam="1">  1       21 0.46794189E-02 0.67248082E+03</pdfrwt>
<pdfrwt beam="2">  1        2 0.57184875E+00 0.67248082E+03</pdfrwt>
<totfact> 0.26322227E+01</totfact>
</mgrwt>
<clustering>
<clus scale="   55.561">  6  7 -1 -1</clus>
<clus scale="   89.065">  4  5 -1 -1</clus>
<clus scale="  293.048">  4  6 -1 -1</clus>
<clus scale="  672.481">  2  4  1 -1</clus>
</clustering>
</event>
<event>
 7      2 +6.5488130e-01 1.30874800e+02 7.54677100e-03 1.11901000e-01
        3 -1    0    0  503    0 -0.0000000000e+00 +0.0000000000e+00 +6.5130185412e+01 6.5130185412e+01 0.0000000000e+00 0.0000e+00 -1.0000e+00
       21 -1    0    0  501  502 +0.0000000000e+00 -0.0000000000e+00 -7.7696364217e+02 7.7696364217e+02 0.0000000000e+00 0.0000e+00 1.0000e+00
       23  2    1    2    0    0 +5.0978449985e+01 +7.0304015080e+01 -4.5212887994e+01 1.3334571683e+02 9.0528548300e+01 0.0000e+00 0.0000e+00
      -13  1    3    3    0    0 -1.1247904813e+00 +7.3157034989e+01 -2.9005526821e+01 7.8705384238e+01 0.0000000000e+00 0.0000e+00 1.0000e+00
       13  1    3    3    0    0 +5.2103240467e+01 -2.8530199086e+00 -1.6207361173e+01 5.4640332593e+01 0.0000000000e+00 0.0000e+00 -1.0000e+00
       21  1    1    2  503  502 -7.9703518803e+01 -1.2385902119e+02 -6.0315466798e+02 6.2087781531e+02 0.0000000000e+00 0.0000e+00 1.0000e+00
        3  1    1    2  501    0 +2.8725068818e+01 +5.3555006110e+01 -6.3465900783e+01 8.7870295437e+01 0.0000000000e+00 0.0000e+00 -1.0000e+00
<scales pt_clust_4="13000.00000" pt_clust_5="13000.00000" pt_clust_6="94.51353" pt_clust_7="60.77230"></scales>
<mgrwt>
<rscale>  0 0.13087485E+03</rscale>
<asrwt>  2 0.60772296E+02 0.94513529E+02</asrwt>
<pdfrwt beam="1">  3       21       -3       -3 0.11953287E+00 0.85497033E-01 0.48396666E-02 0.60772296E+02 0.94513529E+02 0.13087485E+03</pdfrwt>
<pdfrwt beam="2">  1        3 0.10020029E-01 0.60772296E+02</pdfrwt>
<totfact> 0.44111433E+01</totfact>
</mgrwt>
<clustering>
<clus scale="   60.772">  2  7  1 -1</clus>
<clus scale="   90.529">  4  5 -1 -1</clus>
<clus scale="   94.514">  2  6  1 -1</clus>
<clus scale="   60.772">  2  4  1 -1</clus>
</clustering>
</event>
<event>
 7      2 +6.5488130e-01 1.69035300e+02 7.54677100e-03 1.07956100e-01
       -4 -1    0    0    0  501 -0.0000000000e+00 +0.0000000000e+00 +3.2185829015e+01 3.2185829015e+01 0.0000000000e+00 0.0000e+00 1.0000e+00
       21 -1    0    0  503  502 +0.0000000000e+00 -0.0000000000e+00 -2.0696200058e+03 2.0696200058e+03 0.0000000000e+00 0.0000e+00 -1.0000e+00
       23  2    1    2    0    0 +1.4330356380e+02 -4.6481456279e+00 -4.2848486739e+02 4.6019256922e+02 8.7294916932e+01 0.0000e+00 0.0000e+00
      -15  1    3    3    0    0 +5.6624881987e+01 +3.9412866249e+00 -2.9755655466e+02 3.0292733774e+02 1.7770000000e+00 0.0000e+00 -1.0000e+00
       15  1    3    3    0    0 +8.6678681816e+01 -8.5894322527e+00 -1.3092831274e+02 1.5726523148e+02 1.7770000000e+00 0.0000e+00 1.0000e+00
       21  1    1    2  503  501 -1.7697123044e+01 -9.9576911933e+01 -1.1512279086e+03 1.1556619086e+03 0.0000000000e+00 0.0000e+00 -1.0000e+00
       -4  1    1    2    0  502 -1.2560644076e+02 +1.0422505756e+02 -4.5772140084e+02 4.8595135700e+02 0.0000000000e+00 0.0000e+00 1.0000e+00
<scales pt_clust_4="13000.00000" pt_clust_5="13000.00000" pt_clust_6="101.13728" pt_clust_7="144.74985"></scales>
<mgrwt>
<rscale>  0 0.16903527E+03</rscale>
<asrwt>  2 0.10113728E+03 0.14474985E+03</asrwt>
<pdfrwt beam="1">  3       21       21        4 0.31840317E+00 0.11901805E+00 0.91062587E-02 0.10113728E+03 0.14474985E+03 0.16903527E+03</pdfrwt>
<pdfrwt beam="2">  1       -4 0.49516646E-02 0.10113728E+03</pdfrwt>
<totfact> 0.30061418E+00</totfact>
</mgrwt>
<clustering>
<clus scale="   87.295">  4  5 -1 -1</clus>
<clus scale="  101.137">  2  6  1 -1</clus>
<clus scale="  144.750">  2  7  1 -1</clus>
<clus scale="  101.137">  2  4  1 -1</clus>
</clustering>
</event>
<event>
 7      2 +6.5488130e-01 3.75775300e+02 7.54677100e-03 9.72814000e-02
       21 -1    0    0  503  502 +0.0000000000e+00 +0.0000000000e+00 +1.4352115656e+03 1.4352115656e+03 0.0000000000e+00 0.0000e+00 1.0000e+00
       21 -1    0    0  501  503 -0.0000000000e+00 -0.0000000000e+00 -3.5639086797e+01 3.5639086797e+01 0.0000000000e+00 0.0000e+00 1.0000e+00
       23  2    1    2    0    0 +5.4627018950e+01 -1.0629650731e+02 +7.3660393511e+02 7.5182943551e+02 9.1537337768e+01 0.0000e+00 0.0000e+00
      -11  1    3    3    0    0 +2.7782776255e+01 -1.1028194035e+02 +4.5808161193e+02 4.7198808482e+02 0.0000000000e+00 0.0000e+00 1.0000e+00
       11  1    3    3    0    0 +2.6844242695e+01 +3.9854330476e+00 +2.7852232318e+02 2.7984135068e+02 0.0000000000e+00 0.0000e+00 -1.0000e+00
        1  1    1    2  501    0 +1.2174937784e+01 -7.0015123804e+01 +3.1847324073e+02 3.2630591740e+02 0.0000000000e+00 0.0000e+00 -1.0000e+00
       -1  1    1    2    0  502 -6.6801956734e+01 +1.7631163111e+02 +3.4449530294e+02 3.9271529947e+02 0.0000000000e+00 0.0000e+00 1.0000e+00
<scales pt_clust_4="13000.00000" pt_clust_5="13000.00000" pt_clust_6="71.06583" pt_clust_7="13000.00000"></scales>
<mgrwt>
<rscale>  1 0.37577532E+03</rscale>
<asrwt>  1 0.71065827E+02</asrwt>
<pdfrwt beam="1">  1       21 0.22080173E+00 0.37577532E+03</pdfrwt>
<pdfrwt beam="2">  2       21       -1 0.54829376E-02 0.36487992E-02 0.71065827E+02 0.37577532E+03</pdfrwt>
<totfact> 0.20827352E+02</totfact>
</mgrwt>
<clustering>
<clus scale="   71.066">  2  6  1 -1</clus>
<clus scale="   91.537">  4  5 -1 -1</clus>
<clus scale="  135.886">  4  7 -1 -1</clus>
<clus scale="  375.775">  1  4  2 -1</clus>
</clustering>
</event>
<event>
 7      2 +6.5488130e-01 1.67799100e+02 7.54677100e-03 1.08065300e-01
       -3 -1    0    0    0  501 -0.0000000000e+00 +0.0000000000e+00 +2.1125719678e+02 2.1125719678e+02 0.0000000000e+00 0.0000e+00 1.0000e+00
        1 -1    0    0  501    0 +0.0000000000e+00 -0.0000000000e+00 -8.3888549140e+02 8.3888549140e+02 0.0000000000e+00 0.0000e+00 1.0000e+00
       23  2    1    2    0    0 -2.7223589912e+01 -8.8904634520e+01 +7.9588078047e+01 1.5272862414e+02 9.1359797380e+01 0.0000e+00 0.0000e+00
      -13  1    3    3    0    0 -2.5978712794e+01 -8.0819375382e+01 +9.9742073219e+01 1.3097765506e+02 0.0000000000e+00 0.0000e+00 1.0000e+00
       13  1    3    3    0    0 -1.2448771177e+00 -8.0852591377e+00 -2.0153995172e+01 2.1750969077e+01 0.0000000000e+00 0.0000e+00 -1.0000e+00
        1  1    1    2  502    0 -5.5318961313e+01 +1.3371787954e+02 -7.7062288802e+02 7.8409201905e+02 0.0000000000e+00 0.0000e+00 1.0000e+00
       -3  1    1    2    0  502 +8.2542551225e+01 -4.4813245025e+01 +6.3406515349e+01 1.1332204499e+02 0.0000000000e+00 0.0000e+00 1.0000e+00
<scales pt_clust_4="13000.00000" pt_clust_5="13000.00000" pt_clust_6="140.74783" pt_clust_7="93.92284"></scales>
<mgrwt>
<rscale>  0 0.16779912E+03</rscale>
<asrwt>  2 0.93922839E+02 0.14074783E+03</asrwt>
<pdfrwt beam="1">  1        1 0.12905930E+00 0.16779912E+03</pdfrwt>
<pdfrwt beam="2">  3       -3       21       -1 0.32501108E-01 0.17939659E-01 0.38267865E-03 0.93922839E+02 0.14074783E+03 0.16779912E+03</pdfrwt>
<totfact> 0.22471466E+00</totfact>
</mgrwt>
<clustering>
<clus scale="   91.360">  4  5 -1 -1</clus>
<clus scale="   93.923">  1  7  2 -1</clus>
<clus scale="  140.748">  1  6  2 -1</clus>
<clus scale="  167.799">  2  4  1 -1</clus>
</clustering>
</event>
<event>
 7      2 +6.5488130e-01 2.56113500e+02 7.54677100e-03 1.02121200e-01
        1 -1    0    0  503    0 -0.0000000000e+00 +0.0000000000e+00 +2.6654627272e+02 2.6654627272e+02 0.0000000000e+00 0.0000e+00 -1.0000e+00
       21 -1    0    0  501  502 +0.0000000000e+00 -0.0000000000e+00 -2.5620502395e+02 2.5620502395e+02 0.0000000000e+00 0.0000e+00 -1.0000e+00
       23  2    1    2    0    0 +4.2543592353e+01 -3.4333876958e+01 +1.3116217946e+02 1.6844545267e+02 9.0452091442e+01 0.0000e+00 0.0000e+00
      -11  1    3    3    0    0 +1.9415718546e+01 -6.2840032904e+01 +6.3260077890e+01 9.1256108380e+01 0.0000000000e+00 0.0000e+00 -1.0000e+00
       11  1    3    3    0    0 +2.3127873807e+01 +2.8506155947e+01 +6.7902101575e+01 7.7189344290e+01 0.0000000000e+00 0.0000e+00 1.0000e+00
       21  1    1    2  503  502 +9.5441260154e+01 +3.7148381314e+01 -1.7764408540e+02 2.0505232857e+02 0.0000000000e+00 0.0000e+00 -1.0000e+00
        1  1    1    2  501    0 -1.3798485251e+02 -2.8145043564e+00 +5.6823154714e+01 1.4925351543e+02 0.0000000000e+00 0.0000e+00 -1.0000e+00
<scales pt_clust_4="13000.00000" pt_clust_5="13000.00000" pt_clust_6="102.41600" pt_clust_7="13000.00000"></scales>
<mgrwt>
<rscale>  1 0.25611355E+03</rscale>
<asrwt>  1 0.10241600E+03</asrwt>
<pdfrwt beam="1">  2       21       21 0.39416158E-01 0.79514427E-02 0.10241600E+03 0.25611355E+03</pdfrwt>
<pdfrwt beam="2">  1        1 0.41007118E-01 0.10241600E+03</pdfrwt>
<totfact> 0.98761400E+01</totfact>
</mgrwt>
<clustering>
<clus scale="   90.452">  4  5 -1 -1</clus>
<clus scale="  102.416">  2  6  1 -1</clus>
<clus scale="   73.867">  4  7 -1 -1</clus>
<clus scale="  102.416">  2  4  1 -1</clus>
</clustering>
</event>
<event>
 7      2 +6.5488130e-01 1.01745200e+03 7.54677100e-03 8.66461800e-02
       21 -1    0    0  501  502 +0.0000000000e+00 +0.0000000000e+00 +1.2375601062e+02 1.2375601062e+02 0.0000000000e+00 0.0000e+00 1.0000e+00
        2 -1    0    0  503    0 -0.0000000000e+00 -0.0000000000e+00 -2.1906710773e+03 2.1906710773e+03 0.0000000000e+00 0.0000e+00 -1.0000e+00
       23  2    1    2    0    0 +4.3146096541e+02 -2.2525598499e+02 -7.1488086164e+02 8.6942130766e+02 8.9106343393e+01 0.0000e+00 0.0000e+00
      -15  1    3    3    0    0 +2.3977172080e+01 +7.9337912579e+00 -3.6251252176e+01 4.4217200703e+01 1.7770000000e+00 0.0000e+00 -1.0000e+00
       15  1    3    3    0    0 +4.0748379333e+02 -2.3318977625e+02 -6.7862960946e+02 8.2520410696e+02 1.7770000000e+00 0.0000e+00 1.0000e+00
       21  1    1    2  503  502 -1.4111313272e+01 -1.6099056823e+01 -2.3957202783e+01 3.2128746599e+01 0.0000000000e+00 0.0000e+00 -1.0000e+00
        2  1    1    2  501    0 -4.1734965213e+02 +2.4135504182e+02 -1.3280770023e+03 1.4128770337e+03 0.0000000000e+00 0.0000e+00 -1.0000e+00
<scales pt_clust_4="13000.00000" pt_clust_5="13000.00000" pt_clust_6="21.40815" pt_clust_7="13000.00000"></scales>
<mgrwt>
<rscale>  1 0.10174522E+04</rscale>
<asrwt>  1 0.21408148E+02</asrwt>
<pdfrwt beam="1">  2       21       21 0.19039387E-01 0.18167082E-01 0.21408148E+02 0.10174522E+04</pdfrwt>
<pdfrwt beam="2">  1        2 0.33702630E+00 0.21408148E+02</pdfrwt>
<totfact> 0.36161759E+01</totfact>
</mgrwt>
<clustering>
<clus scale="   21.408">  1  6  2 -1</clus>
<clus scale="   89.106">  4  5 -1 -1</clus>
<clus scale="  483.643">  4  7 -1 -1</clus>
<clus scale="   21.408">  1  4  2 -1</clus>
</clustering>
</event>
<event>
 7      2 +6.5488130e-01 4.80061900e+02 7.54677100e-03 9.44264900e-02
       -3 -1    0    0    0  501 -0.0000000000e+00 +0.0000000000e+00 +1.8101141728e+02 1.8101141728e+02 0.0000000000e+00 0.0000e+00 1.0000e+00
       21 -1    0    0  501  502 +0.0000000000e+00 -0.0000000000e+00 -3.6639413873e+02 3.6639413873e+02 0.0000000000e+00 0.0000e+00 1.0000e+00
       23  2    1    2    0    0 -2.9910260959e+01 +2.3298190943e+02 -4.5137776184e+01 2.5534683258e+02 8.9383400233e+01 0.0000e+00 0.0000e+00
      -13  1    3    3    0    0 -2.5256369636e+01 +6.3023741925e+01 +2.3706469370e+01 7.1915735020e+01 0.0000000000e+00 0.0000e+00 -1.0000e+00
       13  1    3    3    0    0 -4.6538913222e+00 +1.6995816750e+02 -6.8844245554e+01 1.8343109756e+02 0.0000000000e+00 0.0000e+00 1.0000e+00
       21  1    1    2  503  502 +5.7572881563e+00 -8.5665589674e+00 -4.6537347098e+01 4.7668196676e+01 0.0000000000e+00 0.0000e+00 -1.0000e+00
       -3  1    1    2    0  503 +2.4152972802e+01 -2.2441535046e+02 -9.3707598163e+01 2.4439052676e+02 0.0000000000e+00 0.0000e+00 1.0000e+00
<scales pt_clust_4="13000.00000" pt_clust_5="13000.00000" pt_clust_6="10.32145" pt_clust_7="13000.00000"></scales>
<mgrwt>
<rscale>  1 0.48006186E+03</rscale>
<asrwt>  1 0.10321449E+02</asrwt>
<pdfrwt beam="1">  2       21       21 0.56368329E-01 0.48945671E-01 0.10321449E+02 0.48006186E+03</pdfrwt>
<pdfrwt beam="2">  1       -3 0.27847910E-01 0.10321449E+02</pdfrwt>
<totfact> 0.38413655E+01</totfact>
</mgrwt>
<clustering>
<clus scale="   10.321">  2  6  1 -1</clus>
<clus scale="   89.383">  4  5 -1 -1</clus>
<clus scale="  230.561">  4  7 -1 -1</clus>
<clus scale="   10.321">  2  4  1 -1</clus>
</clustering>
</event>
<event>
 7      2 +6.5488130e-01 3.32185600e+02 7.54677100e-03 9.87858500e-02
       21 -1    0    0  503  502 +0.0000000000e+00 +0.0000000000e+00 +6.9775304592e+01 6.9775304592e+01 0.0000000000e+00 0.0000e+00 1.0000e+00
       21 -1    0    0  501  503 -0.0000000000e+00 -0.0000000000e+00 -1.0763260207e+03 1.0763260207e+03 0.0000000000e+00 0.0000e+00 -1.0000e+00
       23  2    1    2    0    0 -7.6634683165e+01 -8.4223725885e+01 -4.1282298663e+02 4.3788749016e+02 9.1411843209e+01 0.0000e+00 0.0000e+00
      -15  1    3    3    0    0 +3.0203688870e+00 -5.4411574585e+01 -1.0230709834e+02 1.1592947070e+02 1.7770000000e+00 0.0000e+00 1.0000e+00
       15  1    3    3    0    0 -7.9655052052e+01 -2.9812151300e+01 -3.1051588829e+02 3.2195801945e+02 1.7770000000e+00 0.0000e+00 -1.0000e+00
        1  1    1    2  501    0 +1.3499502532e+02 +1.2703370761e+02 -6.0696071092e+02 6.3463574146e+02 0.0000000000e+00 0.0000e+00 -1.0000e+00
       -1  1    1    2    0  502 -5.8360342152e+01 -4.2809981727e+01 +1.3232981445e+01 7.3578093679e+01 0.0000000000e+00 0.0000e+00 1.0000e+00
<scales pt_clust_4="13000.00000" pt_clust_5="13000.00000" pt_clust_6="13000.00000" pt_clust_7="72.37834"></scales>
<mgrwt>
<rscale>  1 0.33218563E+03</rscale>
<asrwt>  1 0.72378340E+02</asrwt>
<pdfrwt beam="1">  2       21        1 0.10734663E-01 0.37559636E-02 0.72378340E+02 0.33218563E+03</pdfrwt>
<pdfrwt beam="2">  1       21 0.16558861E+00 0.72378340E+02</pdfrwt>
<totfact> 0.22819892E+02</totfact>
</mgrwt>
<clustering>
<clus scale="   72.378">  1  7  2 -1</clus>
<clus scale="   91.412">  4  5 -1 -1</clus>
<clus scale="  147.743">  4  6 -1 -1</clus>
<clus scale="   72.378">  1  4  2 -1</clus>
</clustering>
</event>
<event>
 7      2 +6.5488130e-01 1.68584000e+02 7.54677100e-03 1.07995900e-01
       -1 -1    0    0    0  502 -0.0000000000e+00 +0.0000000000e+00 +4.1741684351e+02 4.1741684351e+02 0.0000000000e+00 0.0000e+00 1.0000e+00
       -2 -1    0    0    0  501 +0.0000000000e+00 -0.0000000000e+00 -1.2646592964e+02 1.2646592964e+02 0.0000000000e+00 0.0000e+00 1.0000e+00
       23  2    1    2    0    0 -4.5936134279e+01 +1.2188406596e+02 +4.6203550355e+01 1.6592079705e+02 9.1810069499e+01 0.0000e+00 0.0000e+00
      -11  1    3    3    0    0 -3.5837770077e+01 +1.2730359822e+01 -1.4396803218e+01 4.0665412431e+01 0.0000000000e+00 0.0000e+00 -1.0000e+00
       11  1    3    3    0    0 -1.0098364203e+01 +1.0915370614e+02 +6.0600353573e+01 1.2525538462e+02 0.0000000000e+00 0.0000e+00 1.0000e+00
       -2  1    1    2    0  502 -4.4454039182e+01 -1.7655841874e+02 +1.6325336340e+02 2.4454181133e+02 0.0000000000e+00 0.0000e+00 1.0000e+00
       -1  1    1    2    0  501 +9.0390173462e+01 +5.4674352773e+01 +8.1494000113e+01 1.3342016476e+02 0.0000000000e+00 0.0000e+00 1.0000e+00
<scales pt_clust_4="13000.00000" pt_clust_5="13000.00000" pt_clust_6="141.39116" pt_clust_7="105.63933"></scales>
<mgrwt>
<rscale>  0 0.16858395E+03</rscale>
<asrwt>  2 0.10563933E+03 0.14139116E+03</asrwt>
<pdfrwt beam="1">  1       -2 0.19456297E-01 0.16858395E+03</pdfrwt>
<pdfrwt beam="2">  3       -1       21        2 0.64217975E-01 0.34502356E-01 0.25635025E-02 0.10563933E+03 0.14139116E+03 0.16858395E+03</pdfrwt>
<totfact> 0.78823620E+00</totfact>
</mgrwt>
<clustering>
<clus scale="   91.810">  4  5 -1 -1</clus>
<clus scale="  105.639">  1  7  2 -1</clus>
<clus scale="  141.391">  1  6  2 -1</clus>
<clus scale="  168.584">  2  4  1 -1</clus>
</clustering>
</event>
<event>
 7      2 +6.5488130e-01 1.13697900e+02 7.54677100e-03 1.14198100e-01
       21 -1    0    0  501  502 +0.0000000000e+00 +0.0000000000e+00 +7.8982964546e+01 7.8982964546e+01 0.0000000000e+00 0.0000e+00 1.0000e+00
        2 -1    0    0  503    0 -0.0000000000e+00 -0.0000000000e+00 -1.8391730676e+03 1.8391730676e+03 0.0000000000e+00 0.0000e+00 -1.0000e+00
       23  2    1    2    0    0 +3.8218104363e+01 -5.7480466092e+01 -1.6394480718e+03 1.6433815434e+03 9.0267878086e+01 0.0000e+00 0.0000e+00
      -13  1    3    3    0    0 +5.3576429991e+01 -6.4929686323e+01 -9.5003892159e+02 9.5376110769e+02 0.0000000000e+00 0.0000e+00 1.0000e+00
       13  1    3    3    0    0 -1.5358325627e+01 +7.4492202316e+00 -6.8940915018e+02 6.8962043574e+02 0.0000000000e+00 0.0000e+00 -1.0000e+00
       21  1    1    2  503  502 +5.5858288565e+01 +1.1881681658e+02 -4.2875987400e+01 1.3811565660e+02 0.0000000000e+00 0.0000e+00 1.0000e+00
        2  1    1    2  501    0 -9.4076392928e+01 -6.1336350489e+01 -7.7866043861e+01 1.3665883208e+02 0.0000000000e+00 0.0000e+00 -1.0000e+00
<scales pt_clust_4="13000.00000" pt_clust_5="13000.00000" pt_clust_6="69.12983" pt_clust_7="112.30546"></scales>
<mgrwt>
<rscale>  0 0.11369795E+03</rscale>
<asrwt>  2 0.11230546E+03 0.69129829E+02</asrwt>
<pdfrwt beam="1">  2       21       -2 0.12151226E-01 0.17040037E-03 0.11230546E+03 0.11369795E+03</pdfrwt>
<pdfrwt beam="2">  1        2 0.28294969E+00 0.11230546E+03</pdfrwt>
<totfact> 0.10554334E+02</totfact>
</mgrwt>
<clustering>
<clus scale="   90.268">  4  5 -1 -1</clus>
<clus scale="  112.305">  1  7  2 -1</clus>
<clus scale="   69.130">  1  6  2 -1</clus>
<clus scale="  112.305">  1  4  2 -1</clus>
</clustering>
</event>
<event>
 7      2 +6.5488130e-01 2.76654000e+02 7.54677100e-03 1.01108400e-01
        2 -1    0    0  503    0 -0.0000000000e+00 +0.0000000000e+00 +1.2756744595e+02 1.2756744595e+02 0.0000000000e+00 0.0000e+00 1.0000e+00
       21 -1    0    0  501  502 +0.0000000000e+00 -0.0000000000e+00 -1.3729472436e+03 1.3729472436e+03 0.0000000000e+00 0.0000e+00 1.0000e+00
       23  2    1    2    0    0 +5.8965246872e+01 -5.6370046499e+00 -2.9821479113e+02 3.1560567689e+02 8.4653443379e+01 0.0000e+00 0.0000e+00
      -13  1    3    3    0    0 -9.1088234078e+00 -1.9940320743e+01 -2.3154361432e+01 3.1885913952e+01 0.0000000000e+00 0.0000e+00 1.0000e+00
       13  1    3    3    0    0 +6.8074070280e+01 +1.4303316093e+01 -2.7506042970e+02 2.8371976294e+02 0.0000000000e+00 0.0000e+00 -1.0000e+00
       21  1    1    2  503  502 -1.2314521656e+02 +1.4701012508e+02 +3.1206406992e+01 1.9429503616e+02 0.0000000000e+00 0.0000e+00 1.0000e+00
        2  1    1    2  501    0 +6.4179969687e+01 -1.4137312043e+02 -9.7837141353e+02 9.9061397654e+02 0.0000000000e+00 0.0000e+00 1.0000e+00
<scales pt_clust_4="13000.00000" pt_clust_5="13000.00000" pt_clust_6="191.77258" pt_clust_7="13000.00000"></scales>
<mgrwt>
<rscale>  1 0.27665402E+03</rscale>
<asrwt>  1 0.19177258E+03</asrwt>
<pdfrwt beam="1">  1       21 0.21122266E+00 0.27665402E+03</pdfrwt>
<pdfrwt beam="2">  2        2        2 0.19625760E-01 0.11138509E-02 0.19177258E+03 0.27665402E+03</pdfrwt>
<totfact> 0.34884187E+00</totfact>
</mgrwt>
<clustering>
<clus scale="   84.653">  4  5 -1 -1</clus>
<clus scale="  155.259">  4  7 -1 -1</clus>
<clus scale="  191.773">  1  6  2 -1</clus>
<clus scale="  276.654">  2  4  1 -1</clus>
</clustering>
</event>
<event>
 7      2 +6.5488130e-01 2.57625900e+02 7.54677100e-03 1.02043200e-01
        2 -1    0    0  502    0 -0.0000000000e+00 +0.0000000000e+00 +1.2068611866e+03 1.2068611866e+03 0.0000000000e+00 0.0000e+00 1.0000e+00
       21 -1    0    0  503  502 +0.0000000000e+00 -0.0000000000e+00 -2.5840534070e+02 2.5840534070e+02 0.0000000000e+00 0.0000e+00 1.0000e+00
       23  2    1    2    0    0 -2.4293525167e+02 -6.5021398968e+01 +6.8960019804e+02 7.3867014226e+02 8.2703247245e+01 0.0000e+00 0.0000e+00
      -13  1    3    3    0    0 -2.4692676194e+02 -7.0680315064e+01 +6.7951835454e+02 7.2643907305e+02 0.0000000000e+00 0.0000e+00 1.0000e+00
       13  1    3    3    0    0 +3.9915102745e+00 +5.6589160952e+00 +1.0081843505e+01 1.2231069214e+01 0.0000000000e+00 0.0000e+00 -1.0000e+00
       21  1    1    2  503  501 +1.6060536960e+01 +2.2452711206e+00 -2.0541704784e+02 2.0605617106e+02 0.0000000000e+00 0.0000e+00 1.0000e+00
        2  1    1    2  501    0 +2.2687471471e+02 +6.2776127848e+01 +4.6427269574e+02 5.2054021401e+02 0.0000000000e+00 0.0000e+00 1.0000e+00
<scales pt_clust_4="13000.00000" pt_clust_5="13000.00000" pt_clust_6="16.21672" pt_clust_7="243.99036"></scales>
<mgrwt>
<rscale>  0 0.25762594E+03</rscale>
<asrwt>  2 0.16216723E+02 0.24399036E+03</asrwt>
<pdfrwt beam="1">  3       21       21       -2 0.39754669E-01 0.80923553E-02 0.21797890E-03 0.16216723E+02 0.24399036E+03 0.25762594E+03</pdfrwt>
<pdfrwt beam="2">  1        2 0.18567095E+00 0.16216723E+02</pdfrwt>
<totfact> 0.81353901E+01</totfact>
</mgrwt>
<clustering>
<clus scale="   16.217">  2  6  1 -1</clus>
<clus scale="   82.703">  4  5 -1 -1</clus>
<clus scale="  243.990">  2  7  1 -1</clus>
<clus scale="   16.217">  2  4  1 -1</clus>
</clustering>
</event>
<event>
 7      2 +6.5488130e-01 3.57491200e+02 7.54677100e-03 9.78843400e-02
       21 -1    0    0  503  502 +0.0000000000e+00 +0.0000000000e+00 +6.2731230324e+01 6.2731230324e+01 0.0000000000e+00 0.0000e+00 -1.0000e+00
        1 -1    0    0  502    0 -0.0000000000e+00 -0.0000000000e+00 -6.5966747266e+02 6.5966747266e+02 0.0000000000e+00 0.0000e+00 -1.0000e+00
       23  2    1    2    0    0 -1.3122370945e+02 +8.3596630575e+01 -3.5470265932e+02 3.9824241232e+02 9.2601208827e+01 0.0000e+00 0.0000e+00
      -15  1    3    3    0    0 +1.0759804853e+01 +1.9493634320e+01 -7.2856699713e+01 7.6203881801e+01 1.7770000000e+00 0.0000e+00 1.0000e+00
       15  1    3    3    0    0 -1.4198351430e+02 +6.4102996255e+01 -2.8184595961e+02 3.2203853052e+02 1.7770000000e+00 0.0000e+00 -1.0000e+00
       21  1    1    2  503  501 -2.9980633086e+01 -2.7567648486e+01 -2.4577911022e+01 4.7569815151e+01 0.0000000000e+00 0.0000e+00 -1.0000e+00
        1  1    1    2  501    0 +1.6120434253e+02 -5.6028982090e+01 -2.1765567200e+02 2.7658647551e+02 0.0000000000e+00 0.0000e+00 -1.0000e+00
<scales pt_clust_4="13000.00000" pt_clust_5="13000.00000" pt_clust_6="40.72854" pt_clust_7="13000.00000"></scales>
<mgrwt>
<rscale>  1 0.35749121E+03</rscale>
<asrwt>  1 0.40728535E+02</asrwt>
<pdfrwt beam="1">  2       21       21 0.96509589E-02 0.73545889E-02 0.40728535E+02 0.35749121E+03</pdfrwt>
<pdfrwt beam="2">  1        1 0.10148730E+00 0.40728535E+02</pdfrwt>
<totfact> 0.45000564E+02</totfact>
</mgrwt>
<clustering>
<clus scale="   40.729">  1  6  2 -1</clus>
<clus scale="   92.601">  4  5 -1 -1</clus>
<clus scale="  160.911">  4  7 -1 -1</clus>
<clus scale="   40.729">  1  4  2 -1</clus>
</clustering>
</event>
<event>
 6      2 +6.5488130e-01 2.56134700e+02 7.54677100e-03 1.02120100e-01
        2 -1    0    0  502    0 +0.0000000000e+00 +0.0000000000e+00 +9.2680535773e+02 9.2680535773e+02 0.0000000000e+00 0.0000e+00 1.0000e+00
       -2 -1    0    0    0  501 -0.0000000000e+00 -0.0000000000e+00 -9.8194040154e+01 9.8194040154e+01 0.0000000000e+00 0.0000e+00 -1.0000e+00
      -11  1    1    2    0    0 +1.7614726024e+02 -1.3467627969e+02 +5.8210259327e+02 6.2290367369e+02 0.0000000000e+00 0.0000e+00 1.0000e+00
       11  1    1    2    0    0 +1.7623185110e-01 -3.3057931576e+01 +1.1959660752e+02 1.2408145078e+02 0.0000000000e+00 0.0000e+00 -1.0000e+00
       21  1    1    2  502  503 -7.6703643100e+00 +1.1254804928e+01 +2.0305607972e+01 2.4450415901e+01 0.0000000000e+00 0.0000e+00 -1.0000e+00
       21  1    1    2  503  501 -1.6865312778e+02 +1.5647940634e+02 +1.0660650881e+02 2.5356385752e+02 0.0000000000e+00 0.0000e+00 -1.0000e+00
<scales pt_clust_3="13000.00000" pt_clust_4="13000.00000" pt_clust_5="10.77330" pt_clust_6="247.35653"></scales>
<mgrwt>
<rscale>  0 0.25613475E+03</rscale>
<asrwt>  2 0.10773302E+02 0.24735653E+03</asrwt>
<pdfrwt beam="1">  1        2 0.14258543E+00 0.25613475E+03</pdfrwt>
<pdfrwt beam="2">  2       -2       -2 0.15106776E-01 0.26477506E-03 0.24735653E+03 0.25613475E+03</pdfrwt>
<totfact> 0.21031148E+01</totfact>
</mgrwt>
<clustering>
<clus scale="   10.773">  5  6 -1 -1</clus>
<clus scale="   30.842">  3  4 -1 -1</clus>
<clus scale="  247.357">  2  5  1 -1</clus>
<clus scale="  256.135">  1  3  2 -1</clus>
</clustering>
</event>
<event>
 7      2 +6.5488130e-01 1.81907900e+02 7.54677100e-03 1.06876200e-01
        1 -1    0    0  503    0 -0.0000000000e+00 +0.0000000000e+00 +1.4364744840e+03 1.4364744840e+03 0.0000000000e+00 0.0000e+00 -1.0000e+00
       21 -1    0    0  501  502 +0.0000000000e+00 -0.0000000000e+00 -1.4128308033e+02 1.4128308033e+02 0.0000000000e+00 0.0000e+00 -1.0000e+00
       23  2    1    2    0    0 -7.5693893432e+01 -5.7074743467e+01 +1.0544424580e+03 1.0617041337e+03 7.9872889042e+01 0.0000e+00 0.0000e+00
      -13  1    3    3    0    0 -1.5651618247e+01 -4.8683555551e+01 +7.1980857790e+02 7.2162278966e+02 0.0000000000e+00 0.0000e+00 -1.0000e+00
       13  1    3    3    0    0 -6.0042275185e+01 -8.3911879165e+00 +3.3463388010e+02 3.4008134403e+02 0.0000000000e+00 0.0000e+00 1.0000e+00
       21  1    1    2  503  502 +9.3359004641e+01 +1.0996370921e+02 -9.6936748908e+01 1.7379486293e+02 0.0000000000e+00 0.0000e+00 -1.0000e+00
        1  1    1    2  501    0 -1.7665111209e+01 -5.2888965745e+01 +3.3768569458e+02 3.4225856772e+02 0.0000000000e+00 0.0000e+00 -1.0000e+00
<scales pt_clust_4="13000.00000" pt_clust_5="13000.00000" pt_clust_6="144.24951" pt_clust_7="13000.00000"></scales>
<mgrwt>
<rscale>  1 0.18190787E+03</rscale>
<asrwt>  1 0.14424951E+03</asrwt>
<pdfrwt beam="1">  2       21       21 0.21735859E-01 0.32886480E-03 0.14424951E+03 0.18190787E+03</pdfrwt>
<pdfrwt beam="2">  1        1 0.22099606E+00 0.14424951E+03</pdfrwt>
<totfact> 0.23687479E+01</totfact>
</mgrwt>
<clustering>
<clus scale="   79.873">  4  5 -1 -1</clus>
<clus scale="   55.761">  4  7 -1 -1</clus>
<clus scale="  144.250">  2  6  1 -1</clus>
<clus scale="  144.250">  2  4  1 -1</clus>
</clustering>
</event>
<event>
 7      2 +6.5488130e-01 4.11870000e+02 7.54677100e-03 9.61918700e-02
       21 -1    0    0  503  502 +0.0000000000e+00 +0.0000000000e+00 +3.9878239526e+02 3.9878239526e+02 0.0000000000e+00 0.0000e+00 1.0000e+00
       -1 -1    0    0    0  501 -0.0000000000e+00 -0.0000000000e+00 -4.9169592749e+02 4.9169592749e+02 0.0000000000e+00 0.0000e+00 1.0000e+00
       23  2    1    2    0    0 -1.4076777538e+01 +2.0185788123e+02 -1.9065123297e+02 2.9219325693e+02 8.9912440078e+01 0.0000e+00 0.0000e+00
      -13  1    3    3    0    0 +1.0192956953e+01 +9.6780478143e+00 +6.7794127932e+00 1.5605172820e+01 0.0000000000e+00 0.0000e+00 -1.0000e+00
       13  1    3    3    0    0 -2.4269734490e+01 +1.9217983342e+02 -1.9743064576e+02 2.7658808411e+02 0.0000000000e+00 0.0000e+00 1.0000e+00
       21  1    1    2  503  501 -9.0308143157e+00 -1.4794105414e+01 +3.1224895795e+02 3.1272964827e+02 0.0000000000e+00 0.0000e+00 1.0000e+00
       -1  1    1    2    0  502 +2.3107591854e+01 -1.8706377582e+02 -2.1451125721e+02 2.8555541755e+02 0.0000000000e+00 0.0000e+00 1.0000e+00
<scales pt_clust_4="13000.00000" pt_clust_5="13000.00000" pt_clust_6="17.33266" pt_clust_7="13000.00000"></scales>
<mgrwt>
<rscale>  1 0.41186999E+03</rscale>
<asrwt>  1 0.17332662E+02</asrwt>
<pdfrwt beam="1">  2       21       21 0.61351138E-01 0.13245871E-01 0.17332662E+02 0.41186999E+03</pdfrwt>
<pdfrwt beam="2">  1       -1 0.75645527E-01 0.17332662E+02</pdfrwt>
<totfact> 0.12243176E+01</totfact>
</mgrwt>
<clustering>
<clus scale="   17.333">  1  6  2 -1</clus>
<clus scale="   89.912">  4  5 -1 -1</clus>
<clus scale="  194.125">  4  7 -1 -1</clus>
<clus scale="   17.333">  1  4  2 -1</clus>
</clustering>
</event>
<event>
 7      2 +6.5488130e-01 5.13782100e+02 7.54677100e-03 9.36654300e-02
        1 -1    0    0  502    0 -0.0000000000e+00 +0.0000000000e+00 +1.6900784220e+03 1.6900784220e+03 0.0000000000e+00 0.0000e+00 -1.0000e+00
       21 -1    0    0  503  502 +0.0000000000e+00 -0.0000000000e+00 -3.9847471810e+02 3.9847471810e+02 0.0000000000e+00 0.0000e+00 -1.0000e+00
       23  2    1    2    0    0 +1.2357110455e+02 +1.9776418249e+02 +9.4856362652e+02 9.8115034182e+02 9.2209272519e+01 0.0000e+00 0.0000e+00
      -11  1    3    3    0    0 +1.2427109846e+02 +1.4540360085e+02 +6.3286098978e+02 6.6113428699e+02 0.0000000000e+00 0.0000e+00 -1.0000e+00
       11  1    3    3    0    0 -6.9999391012e-01 +5.2360581637e+01 +3.1570263675e+02 3.2001605483e+02 0.0000000000e+00 0.0000e+00 1.0000e+00
       21  1    1    2  503  501 +2.9697812903e+01 +8.3895135681e+00 -3.5874966246e+02 3.6007452610e+02 0.0000000000e+00 0.0000e+00 -1.0000e+00
        1  1    1    2  501    0 -1.5326891746e+02 -2.0615369606e+02 +7.0178973987e+02 7.4732827221e+02 0.0000000000e+00 0.0000e+00 -1.0000e+00
<scales pt_clust_4="13000.00000" pt_clust_5="13000.00000" pt_clust_6="30.86007" pt_clust_7="13000.00000"></scales>
<mgrwt>
<rscale>  1 0.51378214E+03</rscale>
<asrwt>  1 0.30860072E+02</asrwt>
<pdfrwt beam="1">  2       21       21 0.61303804E-01 0.59856063E-02 0.30860072E+02 0.51378214E+03</pdfrwt>
<pdfrwt beam="2">  1        1 0.26001206E+00 0.30860072E+02</pdfrwt>
<totfact> 0.36127588E+00</totfact>
</mgrwt>
<clustering>
<clus scale="   30.860">  2  6  1 -1</clus>
<clus scale="   92.209">  4  5 -1 -1</clus>
<clus scale="  242.882">  4  7 -1 -1</clus>
<clus scale="   30.860">  2  4  1 -1</clus>
</clustering>
</event>
<event>
 7      2 +6.5488130e-01 3.63823600e+02 7.54677100e-03 9.76712400e-02
        3 -1    0    0  503    0 -0.0000000000e+00 +0.0000000000e+00 +4.5504168406e+02 4.5504168406e+02 0.0000000000e+00 0.0000e+00 -1.0000e+00
       21 -1    0    0  501  502 +0.0000000000e+00 -0.0000000000e+00 -4.7502477029e+02 4.7502477029e+02 0.0000000000e+00 0.0000e+00 1.0000e+00
       23  2    1    2    0    0 +1.0662013636e+02 -3.0771784712e+02 +1.0998500578e+02 3.5546906952e+02 9.0572793798e+01 0.0000e+00 0.0000e+00
      -15  1    3    3    0    0 +3.2310723824e+01 -1.5065744210e+02 +9.5087452016e+01 1.8107023221e+02 1.7770000000e+00 0.0000e+00 1.0000e+00
       15  1    3    3    0    0 +7.4309412540e+01 -1.5706040502e+02 +1.4897553760e+01 1.7439883731e+02 1.7770000000e+00 0.0000e+00 -1.0000e+00
       21  1    1    2  503  502 -2.4255391683e+02 +3.3744786731e+02 -6.3533340309e+01 4.2040450884e+02 0.0000000000e+00 0.0000e+00 1.0000e+00
        3  1    1    2  501    0 +1.3593378047e+02 -2.9730020187e+01 -6.6434751697e+01 1.5419287599e+02 0.0000000000e+00 0.0000e+00 -1.0000e+00
<scales pt_clust_4="13000.00000" pt_clust_5="13000.00000" pt_clust_6="352.36938" pt_clust_7="139.14693"></scales>
<mgrwt>
<rscale>  0 0.36382360E+03</rscale>
<asrwt>  2 0.13914693E+03 0.35236938E+03</asrwt>
<pdfrwt beam="1">  3       21       -3       -3 0.73080734E-01 0.49062300E-01 0.69337950E-03 0.13914693E+03 0.35236938E+03 0.36382360E+03</pdfrwt>
<pdfrwt beam="2">  1        3 0.70006413E-01 0.13914693E+03</pdfrwt>
<totfact> 0.31148204E+00</totfact>
</mgrwt>
<clustering>
<clus scale="   90.573">  4  5 -1 -1</clus>
<clus scale="  139.147">  2  7  1 -1</clus>
<clus scale="  352.369">  2  6  1 -1</clus>
<clus scale="  139.147">  2  4  1 -1</clus>
</clustering>
</event>
<event>
 7      2 +6.5488130e-01 1.32401800e+02 7.54677100e-03 1.11715800e-01
       21 -1    0    0  501  502 +0.0000000000e+00 +0.0000000000e+00 +8.5421567395e+00 8.5421567395e+00 0.0000000000e+00 0.0000e+00 1.0000e+00
        2 -1    0    0  503    0 -0.0000000000e+00 -0.0000000000e+00 -4.8047705164e+03 4.8047705164e+03 0.0000000000e+00 0.0000e+00 1.0000e+00
       23  2    1    2    0    0 +6.2653166051e+00 +4.4691013488e+01 -2.2672780678e+03 2.2703876207e+03 1.0987980101e+02 0.0000e+00 0.0000e+00
      -15  1    3    3    0    0 -1.3466845766e+01 -3.3848529774e+01 -5.5730101634e+02 5.5849320448e+02 1.7770000000e+00 0.0000e+00 -1.0000e+00
       15  1    3    3    0    0 +1.9732162371e+01 +7.8539543262e+01 -1.7099770515e+03 1.7118944162e+03 1.7770000000e+00 0.0000e+00 1.0000e+00
       21  1    1    2  503  502 +2.3377492224e+01 +1.0755477168e+02 -1.1630677116e+03 1.1682641131e+03 0.0000000000e+00 0.0000e+00 1.0000e+00
        2  1    1    2  501    0 -2.9642808829e+01 -1.5224578517e+02 -1.3658825802e+03 1.3746609394e+03 0.0000000000e+00 0.0000e+00 1.0000e+00
<scales pt_clust_4="13000.00000" pt_clust_5="13000.00000" pt_clust_6="110.06605" pt_clust_7="73.86923"></scales>
<mgrwt>
<rscale>  0 0.13240179E+03</rscale>
<asrwt>  2 0.11006605E+03 0.73869234E+02</asrwt>
<pdfrwt beam="1">  2       21       -2 0.13141757E-02 0.96647134E-04 0.11006605E+03 0.13240179E+03</pdfrwt>
<pdfrwt beam="2">  1        2 0.73919674E+00 0.11006605E+03</pdfrwt>
<totfact> 0.35203157E+01</totfact>
</mgrwt>
<clustering>
<clus scale="  109.880">  4  5 -1 -1</clus>
<clus scale="  110.066">  1  6  2 -1</clus>
<clus scale="   73.869">  1  7  2 -1</clus>
<clus scale="  110.066">  1  4  2 -1</clus>
</clustering>
</event>
<event>
 7      2 +6.5488130e-01 2.14513000e+02 7.54677100e-03 1.04529800e-01
       -2 -1    0    0    0  501 -0.0000000000e+00 +0.0000000000e+00 +1.5040669144e+02 1.5040669144e+02 0.0000000000e+00 0.0000e+00 1.0000e+00
       21 -1    0    0  501  502 +0.0000000000e+00 -0.0000000000e+00 -4.6175434648e+02 4.6175434648e+02 0.0000000000e+00 0.0000e+00 -1.0000e+00
       23  2    1    2    0    0 +5.2967125750e+01 +2.0598900117e+02 -3.2084255377e+01 2.3337242474e+02 9.0533442279e+01 0.0000e+00 0.0000e+00
      -13  1    3    3    0    0 +6.5921773940e+01 +1.2845056335e+02 -4.9912801830e+01 1.5276293821e+02 0.0000000000e+00 0.0000e+00 -1.0000e+00
       13  1    3    3    0    0 -1.2954648189e+01 +7.7538437815e+01 +1.7828546454e+01 8.0609486521e+01 0.0000000000e+00 0.0000e+00 1.0000e+00
       21  1    1    2  503  502 -5.3189183693e+01 -3.1953639275e+01 -1.4899525073e+02 1.6139922263e+02 0.0000000000e+00 0.0000e+00 1.0000e+00
       -2  1    1    2    0  503 +2.2205794320e-01 -1.7403536189e+02 -1.3026814894e+02 2.1738939056e+02 0.0000000000e+00 0.0000e+00 1.0000e+00
<scales pt_clust_4="13000.00000" pt_clust_5="13000.00000" pt_clust_6="62.04937" pt_clust_7="194.47244"></scales>
<mgrwt>
<rscale>  0 0.21451302E+03</rscale>
<asrwt>  2 0.62049370E+02 0.19447244E+03</asrwt>
<pdfrwt beam="1">  3       21       21        2 0.71039128E-01 0.44233349E-01 0.20959337E-02 0.62049370E+02 0.19447244E+03 0.21451302E+03</pdfrwt>
<pdfrwt beam="2">  1       -2 0.23139492E-01 0.62049370E+02</pdfrwt>
<totfact> 0.46946011E+01</totfact>
</mgrwt>
<clustering>
<clus scale="   62.049">  2  6  1 -1</clus>
<clus scale="   90.533">  4  5 -1 -1</clus>
<clus scale="  194.472">  2  7  1 -1</clus>
<clus scale="   62.049">  2  4  1 -1</clus>
</clustering>
</event>
<event>
 7      2 +6.5488130e-01 2.12861100e+02 7.54677100e-03 1.04637500e-01
       21 -1    0    0  501  502 +0.0000000000e+00 +0.0000000000e+00 +2.3927780903e+02 2.3927780903e+02 0.0000000000e+00 0.0000e+00 1.0000e+00
       -4 -1    0    0    0  501 -0.0000000000e+00 -0.0000000000e+00 -2.3422985649e+02 2.3422985649e+02 0.0000000000e+00 0.0000e+00 1.0000e+00
       23  2    1    2    0    0 -6.7449981577e+01 +2.0077852209e+02 -1.4261192610e+01 2.2589919671e+02 7.7236976321e+01 0.0000e+00 0.0000e+00
      -11  1    3    3    0    0 +4.6229036425e+00 +7.5796734949e+01 -2.8084697886e+01 8.0964600427e+01 0.0000000000e+00 0.0000e+00 -1.0000e+00
       11  1    3    3    0    0 -7.2072885220e+01 +1.2498178714e+02 +1.3823505276e+01 1.4493459628e+02 0.0000000000e+00 0.0000e+00 1.0000e+00
       21  1    1    2  503  502 +2.1739010396e+00 -2.4174667547e+01 +5.1184457421e+01 5.6647939752e+01 0.0000000000e+00 0.0000e+00 1.0000e+00
       -4  1    1    2    0  503 +6.5276080537e+01 -1.7660385454e+02 -3.1875312271e+01 1.9096052907e+02 0.0000000000e+00 0.0000e+00 1.0000e+00
<scales pt_clust_4="13000.00000" pt_clust_5="13000.00000" pt_clust_6="24.27221" pt_clust_7="198.35406"></scales>
<mgrwt>
<rscale>  0 0.21286109E+03</rscale>
<asrwt>  2 0.24272214E+02 0.19835406E+03</asrwt>
<pdfrwt beam="1">  3       21       21        4 0.36811971E-01 0.28087846E-01 0.97956877E-03 0.24272214E+02 0.19835406E+03 0.21286109E+03</pdfrwt>
<pdfrwt beam="2">  1       -4 0.36035362E-01 0.24272214E+02</pdfrwt>
<totfact> 0.53717355E+01</totfact>
</mgrwt>
<clustering>
<clus scale="   24.272">  1  6  2 -1</clus>
<clus scale="   77.237">  4  5 -1 -1</clus>
<clus scale="  198.354">  1  7  2 -1</clus>
<clus scale="   24.272">  1  4  2 -1</clus>
</clustering>
</event>
<event>
 7      2 +6.5488130e-01 2.28405200e+02 7.54677100e-03 1.03664100e-01
        2 -1    0    0  502    0 -0.0000000000e+00 +0.0000000000e+00 +7.6917232777e+02 7.6917232777e+02 0.0000000000e+00 0.0000e+00 -1.0000e+00
       21 -1    0    0  503  502 +0.0000000000e+00 -0.0000000000e+00 -7.0990771173e+01 7.0990771173e+01 0.0000000000e+00 0.0000e+00 -1.0000e+00
       23  2    1    2    0    0 +2.0943858761e+02 +3.3624117714e+01 +2.7953642355e+02 3.6469854072e+02 9.9344402144e+01 0.0000e+00 0.0000e+00
      -11  1    3    3    0    0 +5.6406939682e+01 +5.1076665434e+01 +6.2003661296e+01 9.8158151013e+01 0.0000000000e+00 0.0000e+00 1.0000e+00
       11  1    3    3    0    0 +1.5303164793e+02 -1.7452547720e+01 +2.1753276225e+02 2.6654038970e+02 0.0000000000e+00 0.0000e+00 -1.0000e+00
       21  1    1    2  503  501 -1.2838222950e+01 +1.3920125613e+01 +1.5685338201e+01 2.4589015842e+01 0.0000000000e+00 0.0000e+00 -1.0000e+00
        2  1    1    2  501    0 -1.9660036466e+02 -4.7544243327e+01 +4.0295979485e+02 4.5087554239e+02 0.0000000000e+00 0.0000e+00 -1.0000e+00
<scales pt_clust_4="13000.00000" pt_clust_5="13000.00000" pt_clust_6="18.93647" pt_clust_7="205.66884"></scales>
<mgrwt>
<rscale>  0 0.22840521E+03</rscale>
<asrwt>  2 0.18936469E+02 0.20566884E+03</asrwt>
<pdfrwt beam="1">  3       21       21       -2 0.10921658E-01 0.99508269E-02 0.49350303E-03 0.18936469E+02 0.20566884E+03 0.22840521E+03</pdfrwt>
<pdfrwt beam="2">  1        2 0.11833420E+00 0.18936469E+02</pdfrwt>
<totfact> 0.96597778E+02</totfact>
</mgrwt>
<clustering>
<clus scale="   18.936">  2  6  1 -1</clus>
<clus scale="   99.344">  4  5 -1 -1</clus>
<clus scale="  205.669">  2  7  1 -1</clus>
<clus scale="   18.936">  2  4  1 -1</clus>
</clustering>
</event>
<event>
 7      2 +6.5488130e-01 3.16184700e+02 7.54677100e-03 9.94018700e-02
        4 -1    0    0  501    0 +0.0000000000e+00 +0.0000000000e+00 +1.8531812548e+03 1.8531812548e+03 0.0000000000e+00 0.0000e+00 1.0000e+00
       -1 -1    0    0    0  501 -0.0000000000e+00 -0.0000000000e+00 -9.8265039669e+01 9.8265039669e+01 0.0000000000e+00 0.0000e+00 1.0000e+00
       23  2    1    2    0    0 +3.0195841461e+02 +2.5612896323e+02 +7.1096216402e+02 8.1862268518e+02 8.8853655323e+01 0.0000e+00 0.0000e+00
      -13  1    3    3    0    0 +4.0492476449e+01 +4.5803279424e+01 +5.6962622136e+01 8.3560285876e+01 0.0000000000e+00 0.0000e+00 -1.0000e+00
       13  1    3    3    0    0 +2.6146593816e+02 +2.1032568381e+02 +6.5399954188e+02 7.3506239930e+02 0.0000000000e+00 0.0000e+00 1.0000e+00
        4  1    1    2  502    0 -1.2807916414e+02 -2.2803145555e+02 +5.6790119872e+02 6.2523146795e+02 0.0000000000e+00 0.0000e+00 1.0000e+00
       -1  1    1    2    0  502 -1.7387925047e+02 -2.8097507681e+01 +4.7605285241e+02 5.0759214136e+02 0.0000000000e+00 0.0000e+00 1.0000e+00
<scales pt_clust_4="13000.00000" pt_clust_5="13000.00000" pt_clust_6="303.44335" pt_clust_7="176.13488"></scales>
<mgrwt>
<rscale>  0 0.31618467E+03</rscale>
<asrwt>  2 0.17613488E+03 0.30344335E+03</asrwt>
<pdfrwt beam="1">  1        4 0.28510478E+00 0.31618467E+03</pdfrwt>
<pdfrwt beam="2">  3       -1       21       -4 0.15117700E-01 0.86794592E-02 0.16385488E-03 0.17613488E+03 0.30344335E+03 0.31618467E+03</pdfrwt>
<totfact> 0.65861670E-02</totfact>
</mgrwt>
<clustering>
<clus scale="   88.854">  4  5 -1 -1</clus>
<clus scale="  176.135">  2  7  1 -1</clus>
<clus scale="  303.443">  2  6  1 -1</clus>
<clus scale="  316.185">  1  4  2 -1</clus>
</clustering>
</event>
<event>
 7      2 +6.5488130e-01 2.74525300e+02 7.54677100e-03 1.01208900e-01
       21 -1    0    0  501  502 +0.0000000000e+00 +0.0000000000e+00 +3.8906344312e+02 3.8906344312e+02 0.0000000000e+00 0.0000e+00 1.0000e+00
        1 -1    0    0  503    0 -0.0000000000e+00 -0.0000000000e+00 -1.2085745428e+02 1.2085745428e+02 0.0000000000e+00 0.0000e+00 -1.0000e+00
       23  2    1    2    0    0 -8.2256275451e+01 +1.2806239651e+01 +2.6727615385e+02 2.9417745913e+02 9.0408740836e+01 0.0000e+00 0.0000e+00
      -15  1    3    3    0    0 +8.9042977147e+00 +1.5390965221e+01 +8.4849836070e+00 1.9781835204e+01 1.7770000000e+00 0.0000e+00 -1.0000e+00
       15  1    3    3    0    0 -9.1160573165e+01 -2.5847255701e+00 +2.5879117024e+02 2.7439562392e+02 1.7770000000e+00 0.0000e+00 1.0000e+00
       21  1    1    2  503  502 +1.4365322168e+02 -5.9320105419e+00 +3.0928692468e+01 1.4706468259e+02 0.0000000000e+00 0.0000e+00 -1.0000e+00
        1  1    1    2  501    0 -6.1396946228e+01 -6.8742291094e+00 -2.9998857468e+01 6.8678755677e+01 0.0000000000e+00 0.0000e+00 -1.0000e+00
<scales pt_clust_4="13000.00000" pt_clust_5="13000.00000" pt_clust_6="143.77572" pt_clust_7="13000.00000"></scales>
<mgrwt>
<rscale>  1 0.27452526E+03</rscale>
<asrwt>  1 0.14377572E+03</asrwt>
<pdfrwt beam="1">  2       21       21 0.59855913E-01 0.17405336E-01 0.14377572E+03 0.27452526E+03</pdfrwt>
<pdfrwt beam="2">  1        1 0.18593455E-01 0.14377572E+03</pdfrwt>
<totfact> 0.99837865E+01</totfact>
</mgrwt>
<clustering>
<clus scale="   90.409">  4  5 -1 -1</clus>
<clus scale="   61.781">  4  7 -1 -1</clus>
<clus scale="  143.776">  1  6  2 -1</clus>
<clus scale="  143.776">  1  4  2 -1</clus>
</clustering>
</event>
<event>
 7      2 +6.5488130e-01 3.57118500e+02 7.54677100e-03 9.78970300e-02
       21 -1    0    0  503  502 +0.0000000000e+00 +0.0000000000e+00 +6.0585364396e+02 6.0585364396e+02 0.0000000000e+00 0.0000e+00 -1.0000e+00
        2 -1    0    0  502    0 -0.0000000000e+00 -0.0000000000e+00 -3.9636488705e+03 3.9636488705e+03 0.0000000000e+00 0.0000e+00 -1.0000e+00
       23  2    1    2    0    0 -8.8504222365e+01 -3.3088325919e+02 -3.7362247274e+03 3.7530724231e+03 9.4131136835e+01 0.0000e+00 0.0000e+00
      -13  1    3    3    0    0 +2.5659565451e+00 -9.5389489099e+01 -1.3985540245e+03 1.4018056564e+03 0.0000000000e+00 0.0000e+00 1.0000e+00
       13  1    3    3    0    0 -9.1070178910e+01 -2.3549377009e+02 -2.3376707028e+03 2.3512667667e+03 0.0000000000e+00 0.0000e+00 -1.0000e+00
       21  1    1    2  503  501 -7.3523004007e+01 -2.5180616862e+01 +4.1621977183e+02 4.2341303008e+02 0.0000000000e+00 0.0000e+00 -1.0000e+00
        2  1    1    2  501    0 +1.6202722637e+02 +3.5606387605e+02 -3.7790271037e+01 3.9301706134e+02 0.0000000000e+00 0.0000e+00 -1.0000e+00
<scales pt_clust_4="13000.00000" pt_clust_5="13000.00000" pt_clust_6="77.71548" pt_clust_7="344.48939"></scales>
<mgrwt>
<rscale>  0 0.35711848E+03</rscale>
<asrwt>  2 0.77715478E+02 0.34448939E+03</asrwt>
<pdfrwt beam="1">  3       21       21       -2 0.93208253E-01 0.28536537E-01 0.85980127E-04 0.77715478E+02 0.34448939E+03 0.35711848E+03</pdfrwt>
<pdfrwt beam="2">  1        2 0.60979214E+00 0.77715478E+02</pdfrwt>
<totfact> 0.12621269E-01</totfact>
</mgrwt>
<clustering>
<clus scale="   77.715">  1  6  2 -1</clus>
<clus scale="   94.131">  4  5 -1 -1</clus>
<clus scale="  344.489">  1  7  2 -1</clus>
<clus scale="   77.715">  1  4  2 -1</clus>
</clustering>
</event>
<event>
 7      2 +6.5488130e-01 2.29419200e+02 7.54677100e-03 1.06017700e-01
       21 -1    0    0  503  502 +0.0000000000e+00 +0.0000000000e+00 +6.5681743925e+02 6.5681743925e+02 0.0000000000e+00 0.0000e+00 1.0000e+00
       -1 -1    0    0    0  501 -0.0000000000e+00 -0.0000000000e+00 -1.3890885319e+02 1.3890885319e+02 0.0000000000e+00 0.0000e+00 1.0000e+00
       23  2    1    2    0    0 +1.6172093650e+01 -5.3880786364e+01 +1.4344917613e+02 1.8386807779e+02 1.0032511225e+02 0.0000e+00 0.0000e+00
      -15  1    3    3    0    0 -2.5108452512e+01 +1.7520205549e+01 +2.5236728808e+01 3.9717026575e+01 1.7770000000e+00 0.0000e+00 -1.0000e+00
       15  1    3    3    0    0 +4.1280546161e+01 -7.1400991913e+01 +1.1821244732e+02 1.4415105122e+02 1.7770000000e+00 0.0000e+00 1.0000e+00
       21  1    1    2  503  501 -1.5486474836e+02 -1.4333973717e+02 +6.7546040412e+01 2.2156678025e+02 0.0000000000e+00 0.0000e+00 1.0000e+00
       -1  1    1    2    0  502 +1.3869265471e+02 +1.9722052353e+02 +3.0691336952e+02 3.9029143440e+02 0.0000000000e+00 0.0000e+00 1.0000e+00
<scales pt_clust_4="13000.00000" pt_clust_5="13000.00000" pt_clust_6="13000.00000" pt_clust_7="229.41920"></scales>
<mgrwt>
<rscale>  1 0.19304855E+03</rscale>
<asrwt>  1 0.22941920E+03</asrwt>
<pdfrwt beam="1">  2       21        1 0.10104883E+00 0.10104883E+00 0.22941920E+03 0.22941920E+03</pdfrwt>
<pdfrwt beam="2">  1       -1 0.21370593E-01 0.11502094E+03</pdfrwt>
<totfact> 0.15876596E+01</totfact>
</mgrwt>
<clustering>
<clus scale="  100.325">  4  5 -1 -1</clus>
<clus scale="  115.021">  2  4  1 -1</clus>
<clus scale="  229.419">  1  7  2 -1</clus>
<clus scale="  229.419">  1  4  2 -1</clus>
</clustering>
</event>
<event>
 7      2 +6.5488130e-01 3.12682500e+02 7.54677100e-03 9.95419800e-02
       21 -1    0    0  503  502 +0.0000000000e+00 +0.0000000000e+00 +5.3512192073e+02 5.3512192073e+02 0.0000000000e+00 0.0000e+00 1.0000e+00
       -5 -1    0    0    0  501 -0.0000000000e+00 -0.0000000000e+00 -3.5825005408e+02 3.5825005408e+02 0.0000000000e+00 0.0000e+00 1.0000e+00
       23  2    1    2    0    0 +1.9729166769e+02 -2.3670494719e+02 -1.4000187298e+02 3.5048561682e+02 9.1029714928e+01 0.0000e+00 0.0000e+00
      -11  1    3    3    0    0 -5.0525645464e+00 -3.5400152238e+01 -1.8724400186e+01 4.0364617541e+01 0.0000000000e+00 0.0000e+00 -1.0000e+00
       11  1    3    3    0    0 +2.0234423223e+02 -2.0130479495e+02 -1.2127747280e+02 3.1012099928e+02 0.0000000000e+00 0.0000e+00 1.0000e+00
       21  1    1    2  503  501 -2.0112262694e+02 +2.0109199978e+02 +6.9293259048e+01 2.9272830268e+02 0.0000000000e+00 0.0000e+00 -1.0000e+00
       -5  1    1    2    0  502 +3.8309592508e+00 +3.5612947413e+01 +2.4758048058e+02 2.5015805531e+02 0.0000000000e+00 0.0000e+00 1.0000e+00
<scales pt_clust_4="13000.00000" pt_clust_5="13000.00000" pt_clust_6="299.13867" pt_clust_7="35.81841"></scales>
<mgrwt>
<rscale>  0 0.31268251E+03</rscale>
<asrwt>  2 0.35818407E+02 0.29913867E+03</asrwt>
<pdfrwt beam="1">  3       21        5        5 0.82326449E-01 0.43742704E-01 0.88962454E-03 0.35818407E+02 0.29913867E+03 0.31268251E+03</pdfrwt>
<pdfrwt beam="2">  1       -5 0.55115393E-01 0.35818407E+02</pdfrwt>
<totfact> 0.28405699E+00</totfact>
</mgrwt>
<clustering>
<clus scale="   35.818">  1  7  2 -1</clus>
<clus scale="   91.030">  4  5 -1 -1</clus>
<clus scale="  299.139">  1  6  2 -1</clus>
<clus scale="   35.818">  1  4  2 -1</clus>
</clustering>
</event>
<event>
 7      2 +6.5488130e-01 7.17856300e+02 7.54677100e-03 9.00901600e-02
        3 -1    0    0  501    0 +0.0000000000e+00 +0.0000000000e+00 +7.5128664085e+02 7.5128664085e+02 0.0000000000e+00 0.0000e+00 -1.0000e+00
        3 -1    0    0  502    0 -0.0000000000e+00 -0.0000000000e+00 -4.0822099622e+02 4.0822099622e+02 0.0000000000e+00 0.0000e+00 -1.0000e+00
       23  2    1    2    0    0 -2.0794142327e+02 -2.8666072133e+01 +6.2520463146e+02 6.6587267164e+02 9.1892352456e+01 0.0000e+00 0.0000e+00
      -11  1    3    3    0    0 -1.3591911820e+01 -2.5631674759e+01 +4.1346429973e+01 5.0509900904e+01 0.0000000000e+00 0.0000e+00 1.0000e+00
       11  1    3    3    0    0 -1.9434951145e+02 -3.0343973740e+00 +5.8385820148e+02 6.1536277074e+02 0.0000000000e+00 0.0000e+00 -1.0000e+00
        3  1    1    2  501    0 -3.9835537392e+01 -1.1495817444e+01 -2.3450806894e+02 2.3814503618e+02 0.0000000000e+00 0.0000e+00 -1.0000e+00
        3  1    1    2  502    0 +2.4777696066e+02 +4.0161889576e+01 -4.7630917884e+01 2.5548992925e+02 0.0000000000e+00 0.0000e+00 -1.0000e+00
<scales pt_clust_4="13000.00000" pt_clust_5="13000.00000" pt_clust_6="41.46111" pt_clust_7="13000.00000"></scales>
<mgrwt>
<rscale>  1 0.71785629E+03</rscale>
<asrwt>  1 0.41461113E+02</asrwt>
<pdfrwt beam="1">  1        3 0.11558256E+00 0.71785629E+03</pdfrwt>
<pdfrwt beam="2">  2        3       21 0.62803230E-01 0.26293284E-01 0.41461113E+02 0.71785629E+03</pdfrwt>
<totfact> 0.86169890E-02</totfact>
</mgrwt>
<clustering>
<clus scale="   41.461">  2  6  1 -1</clus>
<clus scale="   91.892">  4  5 -1 -1</clus>
<clus scale="  214.763">  4  7 -1 -1</clus>
<clus scale="  717.856">  1  4  2 -1</clus>
</clustering>
</event>
<event>
 7      2 +6.5488130e-01 2.43794800e+02 7.54677100e-03 1.02779500e-01
        2 -1    0    0  503    0 -0.0000000000e+00 +0.0000000000e+00 +7.0954508597e+02 7.0954508597e+02 0.0000000000e+00 0.0000e+00 -1.0000e+00
       21 -1    0    0  501  502 +0.0000000000e+00 -0.0000000000e+00 -5.1337319299e+02 5.1337319299e+02 0.0000000000e+00 0.0000e+00 1.0000e+00
       23  2    1    2    0    0 -1.4656233346e+02 -1.6266590880e+02 +2.4669523449e+02 3.4227629173e+02 9.1399155835e+01 0.0000e+00 0.0000e+00
      -13  1    3    3    0    0 +1.1608326151e+01 -1.9789478056e+01 +1.4787166925e+01 2.7295365603e+01 0.0000000000e+00 0.0000e+00 -1.0000e+00
       13  1    3    3    0    0 -1.5817065961e+02 -1.4287643074e+02 +2.3190806756e+02 3.1498092613e+02 0.0000000000e+00 0.0000e+00 1.0000e+00
       21  1    1    2  503  502 -1.8101049976e+01 +7.6373526282e-01 -4.3325898148e+02 4.3363760946e+02 0.0000000000e+00 0.0000e+00 1.0000e+00
        2  1    1    2  501    0 +1.6466338343e+02 +1.6190217354e+02 +3.8273563997e+02 4.4700437777e+02 0.0000000000e+00 0.0000e+00 -1.0000e+00
<scales pt_clust_4="13000.00000" pt_clust_5="13000.00000" pt_clust_6="18.11715" pt_clust_7="226.01362"></scales>
<mgrwt>
<rscale>  0 0.24379481E+03</rscale>
<asrwt>  2 0.18117155E+02 0.22601362E+03</asrwt>
<pdfrwt beam="1">  3       21       21       -2 0.78980491E-01 0.12275065E-01 0.45282565E-03 0.18117155E+02 0.22601362E+03 0.24379481E+03</pdfrwt>
<pdfrwt beam="2">  1        2 0.10916078E+00 0.18117155E+02</pdfrwt>
<totfact> 0.32073055E+01</totfact>
</mgrwt>
<clustering>
<clus scale="   18.117">  2  6  1 -1</clus>
<clus scale="   91.399">  4  5 -1 -1</clus>
<clus scale="  226.014">  2  7  1 -1</clus>
<clus scale="   18.117">  2  4  1 -1</clus>
</clustering>
</event>
<event>
 7      2 +6.5488130e-01 2.11431200e+02 7.54677100e-03 1.04731500e-01
        1 -1    0    0  503    0 -0.0000000000e+00 +0.0000000000e+00 +9.2834481091e+02 9.2834481091e+02 0.0000000000e+00 0.0000e+00 -1.0000e+00
       21 -1    0    0  501  502 +0.0000000000e+00 -0.0000000000e+00 -1.0592442187e+02 1.0592442187e+02 0.0000000000e+00 0.0000e+00 1.0000e+00
       23  2    1    2    0    0 -2.1663680968e+01 +1.7616804819e+02 +1.7848921382e+02 2.6809365378e+02 9.2256769257e+01 0.0000e+00 0.0000e+00
      -15  1    3    3    0    0 -1.7343640210e+01 +1.8721035295e+02 +1.6885812151e+02 2.5271474242e+02 1.7770000000e+00 0.0000e+00 1.0000e+00
       15  1    3    3    0    0 -4.3200407587e+00 -1.1042304763e+01 +9.6310923039e+00 1.5378911360e+01 1.7770000000e+00 0.0000e+00 -1.0000e+00
       21  1    1    2  503  502 +1.2292571502e+01 +2.3452605759e+01 +5.4051272155e+02 5.4116091340e+02 0.0000000000e+00 0.0000e+00 -1.0000e+00
        1  1    1    2  501    0 +9.3711094659e+00 -1.9962065395e+02 +1.0341845367e+02 2.2501466560e+02 0.0000000000e+00 0.0000e+00 -1.0000e+00
<scales pt_clust_4="13000.00000" pt_clust_5="13000.00000" pt_clust_6="26.47890" pt_clust_7="190.24156"></scales>
<mgrwt>
<rscale>  0 0.21143122E+03</rscale>
<asrwt>  2 0.26478898E+02 0.19024156E+03</asrwt>
<pdfrwt beam="1">  2       21       -1 0.16296066E-01 0.85101576E-03 0.19024156E+03 0.21143122E+03</pdfrwt>
<pdfrwt beam="2">  2        1        1 0.14282227E+00 0.59179620E-01 0.26478898E+02 0.21143122E+03</pdfrwt>
<totfact> 0.12477641E+02</totfact>
</mgrwt>
<clustering>
<clus scale="   26.479">  1  6  2 -1</clus>
<clus scale="   92.257">  4  5 -1 -1</clus>
<clus scale="  190.242">  2  7  1 -1</clus>
<clus scale="  190.242">  2  4  1 -1</clus>
</clustering>
</event>
<event>
 7      2 +6.5488130e-01 2.17195900e+02 7.54677100e-03 1.04357200e-01
        1 -1    0    0  502    0 +0.0000000000e+00 +0.0000000000e+00 +4.0952645704e+02 4.0952645704e+02 0.0000000000e+00 0.0000e+00 -1.0000e+00
       -1 -1    0    0    0  501 -0.0000000000e+00 -0.0000000000e+00 -3.3820398404e+02 3.3820398404e+02 0.0000000000e+00 0.0000e+00 1.0000e+00
       23  2    1    2    0    0 -4.6418466205e+01 +1.8804264336e+02 -2.7145444889e+02 3.4795649062e+02 9.9355381439e+01 0.0000e+00 0.0000e+00
      -11  1    3    3    0    0 -2.6266177596e+01 +1.6393259404e+02 -2.6942164357e+02 3.1646773848e+02 0.0000000000e+00 0.0000e+00 1.0000e+00
       11  1    3    3    0    0 -2.0152288609e+01 +2.4110049319e+01 -2.0328053196e+00 3.1488752148e+01 0.0000000000e+00 0.0000e+00 -1.0000e+00
       21  1    1    2  502  503 +1.1988236464e+01 -2.9789844821e+00 +5.4974612720e+00 1.3520881721e+01 0.0000000000e+00 0.0000e+00 -1.0000e+00
       21  1    1    2  503  501 +3.4430229740e+01 -1.8506365888e+02 +3.3727946061e+02 3.8625306874e+02 0.0000000000e+00 0.0000e+00 -1.0000e+00
<scales pt_clust_4="13000.00000" pt_clust_5="13000.00000" pt_clust_6="12.35282" pt_clust_7="193.13868"></scales>
<mgrwt>
<rscale>  0 0.21719586E+03</rscale>
<asrwt>  2 0.12352820E+02 0.19313868E+03</asrwt>
<pdfrwt beam="1">  3        1        1        1 0.63004071E-01 0.60793779E-01 0.11226147E-02 0.12352820E+02 0.19313868E+03 0.21719586E+03</pdfrwt>
<pdfrwt beam="2">  1       -1 0.52031382E-01 0.12352820E+02</pdfrwt>
<totfact> 0.91527921E+00</totfact>
</mgrwt>
<clustering>
<clus scale="   12.353">  1  6  2 -1</clus>
<clus scale="   99.355">  4  5 -1 -1</clus>
<clus scale="  193.139">  1  7  2 -1</clus>
<clus scale="   12.353">  1  4  2 -1</clus>
</clustering>
</event>
<event>
 7      2 +6.5488130e-01 2.03129100e+02 7.54677100e-03 1.05294000e-01
       21 -1    0    0  501  502 +0.0000000000e+00 +0.0000000000e+00 +8.1444145346e+01 8.1444145346e+01 0.0000000000e+00 0.0000e+00 1.0000e+00
        2 -1    0    0  503    0 -0.0000000000e+00 -0.0000000000e+00 -9.5246401494e+02 9.5246401494e+02 0.0000000000e+00 0.0000e+00 -1.0000e+00
       23  2    1    2    0    0 +3.6871297789e+01 +1.0516074683e+01 -6.1009103236e+02 6.1814792373e+02 9.1791652285e+01 0.0000e+00 0.0000e+00
      -15  1    3    3    0    0 +5.5656741143e+01 -2.3604474283e+01 -3.7414919808e+02 3.7900610047e+02 1.7770000000e+00 0.0000e+00 1.0000e+00
       15  1    3    3    0    0 -1.8785443354e+01 +3.4120548966e+01 -2.3594183428e+02 2.3914182327e+02 1.7770000000e+00 0.0000e+00 -1.0000e+00
       21  1    1    2  503  502 -1.1602360385e+02 -5.6608701670e+01 +1.0276370415e+01 1.2950531087e+02 0.0000000000e+00 0.0000e+00 1.0000e+00
        2  1    1    2  501    0 +7.9152306062e+01 +4.6092626986e+01 -2.7120520765e+02 2.8625492568e+02 0.0000000000e+00 0.0000e+00 -1.0000e+00
<scales pt_clust_4="13000.00000" pt_clust_5="13000.00000" pt_clust_6="129.09695" pt_clust_7="13000.00000"></scales>
<mgrwt>
<rscale>  1 0.20312915E+03</rscale>
<asrwt>  1 0.12909695E+03</asrwt>
<pdfrwt beam="1">  2       21       21 0.12529868E-01 0.99319030E-03 0.12909695E+03 0.20312915E+03</pdfrwt>
<pdfrwt beam="2">  1        2 0.14653293E+00 0.12909695E+03</pdfrwt>
<totfact> 0.26408549E+02</totfact>
</mgrwt>
<clustering>
<clus scale="   91.792">  4  5 -1 -1</clus>
<clus scale="   91.595">  4  7 -1 -1</clus>
<clus scale="  129.097">  1  6  2 -1</clus>
<clus scale="  129.097">  1  4  2 -1</clus>
</clustering>
</event>
<event>
 7      2 +6.5488130e-01 1.11587800e+02 7.54677100e-03 1.15219200e-01
       21 -1    0    0  501  502 +0.0000000000e+00 +0.0000000000e+00 +1.0959209057e+03 1.0959209057e+03 0.0000000000e+00 0.0000e+00 -1.0000e+00
        2 -1    0    0  503    0 -0.0000000000e+00 -0.0000000000e+00 -3.1095813585e+02 3.1095813585e+02 0.0000000000e+00 0.0000e+00 -1.0000e+00
       23  2    1    2    0    0 -2.4702846101e+01 +9.6621787159e+00 -1.8867989250e+02 2.1095836505e+02 9.0552424866e+01 0.0000e+00 0.0000e+00
      -13  1    3    3    0    0 -5.9231095408e+01 +8.0918783433e+00 -1.1791207034e+02 1.3220082257e+02 0.0000000000e+00 0.0000e+00 -1.0000e+00
       13  1    3    3    0    0 +3.4528249307e+01 +1.5703003725e+00 -7.0767822165e+01 7.8757542480e+01 0.0000000000e+00 0.0000e+00 1.0000e+00
       21  1    1    2  503  502 -1.0259733844e+01 -1.1130921342e+02 +1.0551290233e+03 1.0610335805e+03 0.0000000000e+00 0.0000e+00 -1.0000e+00
        2  1    1    2  501    0 +3.4962579945e+01 +1.0164703470e+02 -8.1486360913e+01 1.3488709603e+02 0.0000000000e+00 0.0000e+00 -1.0000e+00
<scales pt_clust_4="13000.00000" pt_clust_5="13000.00000" pt_clust_6="13000.00000" pt_clust_7="111.58775"></scales>
<mgrwt>
<rscale>  2 0.10700559E+03</rscale>
<asrwt>0</asrwt>
<pdfrwt beam="1">  1       21 0.16860321E+00 0.11158775E+03</pdfrwt>
<pdfrwt beam="2">  1        2 0.47839714E-01 0.94357458E+02</pdfrwt>
<totfact> 0.36307643E+00</totfact>
</mgrwt>
<clustering>
<clus scale="   90.552">  4  5 -1 -1</clus>
<clus scale="   94.357">  2  4  1 -1</clus>
<clus scale="  111.588">  2  7  1 -1</clus>
<clus scale="  111.588">  1  4  2 -1</clus>
</clustering>
</event>
<event>
 7      2 +6.5488130e-01 2.11720500e+02 7.54677100e-03 1.04712400e-01
        2 -1    0    0  502    0 -0.0000000000e+00 +0.0000000000e+00 +2.9279960940e+03 2.9279960940e+03 0.0000000000e+00 0.0000e+00 -1.0000e+00
       21 -1    0    0  503  502 +0.0000000000e+00 -0.0000000000e+00 -2.2383494454e+01 2.2383494454e+01 0.0000000000e+00 0.0000e+00 1.0000e+00
       23  2    1    2    0    0 +7.3825997225e+01 +1.9296165706e+02 +8.4462101702e+02 8.7410027971e+02 8.9342921580e+01 0.0000e+00 0.0000e+00
      -15  1    3    3    0    0 +7.1742773293e+01 +1.1933007379e+02 +6.7424921111e+02 6.8847792153e+02 1.7770000000e+00 0.0000e+00 -1.0000e+00
       15  1    3    3    0    0 +2.0832239319e+00 +7.3631583265e+01 +1.7037180592e+02 1.8562235818e+02 1.7770000000e+00 0.0000e+00 1.0000e+00
       21  1    1    2  503  501 +5.1942337310e+00 -2.2666972276e+01 +3.7689361984e+01 4.4286111852e+01 0.0000000000e+00 0.0000e+00 1.0000e+00
        2  1    1    2  501    0 -7.9020230956e+01 -1.7029468478e+02 +2.0233022205e+03 2.0319931969e+03 0.0000000000e+00 0.0000e+00 -1.0000e+00
<scales pt_clust_4="13000.00000" pt_clust_5="13000.00000" pt_clust_6="23.25450" pt_clust_7="191.94643"></scales>
<mgrwt>
<rscale>  0 0.21172046E+03</rscale>
<asrwt>  2 0.23254498E+02 0.19194643E+03</asrwt>
<pdfrwt beam="1">  3       21       21       -2 0.34436168E-02 0.28879685E-02 0.10485201E-03 0.23254498E+02 0.19194643E+03 0.21172046E+03</pdfrwt>
<pdfrwt beam="2">  1        2 0.45046063E+00 0.23254498E+02</pdfrwt>
<totfact> 0.47746549E+02</totfact>
</mgrwt>
<clustering>
<clus scale="   23.254">  2  6  1 -1</clus>
<clus scale="   89.343">  4  5 -1 -1</clus>
<clus scale="  191.946">  2  7  1 -1</clus>
<clus scale="   23.254">  2  4  1 -1</clus>
</clustering>
</event>
<event>
 7      2 +6.5488130e-01 2.78330000e+02 7.54677100e-03 1.01030000e-01
       21 -1    0    0  503  502 +0.0000000000e+00 +0.0000000000e+00 +1.1722332045e+02 1.1722332045e+02 0.0000000000e+00 0.0000e+00 1.0000e+00
       -1 -1    0    0    0  501 -0.0000000000e+00 -0.0000000000e+00 -9.1246883293e+02 9.1246883293e+02 0.0000000000e+00 0.0000e+00 1.0000e+00
       23  2    1    2    0    0 +4.5117194046e+01 -2.8559372297e+01 -4.4386642200e+02 4.5596470470e+02 8.9639346313e+01 0.0000e+00 0.0000e+00
      -13  1    3    3    0    0 +1.0803719287e+01 +2.9967043769e+01 -8.5686350703e+01 9.1416053074e+01 0.0000000000e+00 0.0000e+00 1.0000e+00
       13  1    3    3    0    0 +3.4313474759e+01 -5.8526416066e+01 -3.5818007130e+02 3.6454865163e+02 0.0000000000e+00 0.0000e+00 -1.0000e+00
       21  1    1    2  503  501 +8.5367022898e+01 -7.3472726657e+01 +6.1878827384e+01 1.2850976398e+02 0.0000000000e+00 0.0000e+00 1.0000e+00
       -1  1    1    2    0  502 -1.3048421694e+02 +1.0203209895e+02 -4.1325791786e+02 4.4521768469e+02 0.0000000000e+00 0.0000e+00 1.0000e+00
<scales pt_clust_4="13000.00000" pt_clust_5="13000.00000" pt_clust_6="112.63112" pt_clust_7="13000.00000"></scales>
<mgrwt>
<rscale>  1 0.27832996E+03</rscale>
<asrwt>  1 0.11263112E+03</asrwt>
<pdfrwt beam="1">  2       21       21 0.18034357E-01 0.27306221E-02 0.11263112E+03 0.27832996E+03</pdfrwt>
<pdfrwt beam="2">  1       -1 0.14037982E+00 0.11263112E+03</pdfrwt>
<totfact> 0.19548377E+01</totfact>
</mgrwt>
<clustering>
<clus scale="   89.639">  4  5 -1 -1</clus>
<clus scale="  112.631">  1  6  2 -1</clus>
<clus scale="   84.115">  4  7 -1 -1</clus>
<clus scale="  112.631">  1  4  2 -1</clus>
</clustering>
</event>
<event>
 7      2 +6.5488130e-01 1.34673600e+02 7.54677100e-03 1.13062700e-01
       -2 -1    0    0    0  501 +0.0000000000e+00 +0.0000000000e+00 +5.7545509473e+01 5.7545509473e+01 0.0000000000e+00 0.0000e+00 1.0000e+00
       -3 -1    0    0    0  502 -0.0000000000e+00 -0.0000000000e+00 -4.8071868552e+03 4.8071868552e+03 0.0000000000e+00 0.0000e+00 1.0000e+00
       23  2    1    2    0    0 +9.4916676726e+00 +2.1499650840e+01 -1.8126172271e+03 1.8148548057e+03 8.6973713477e+01 0.0000e+00 0.0000e+00
      -15  1    3    3    0    0 -1.4712864302e+01 +3.2642755114e+01 -1.6198348272e+03 1.6202314782e+03 1.7770000000e+00 0.0000e+00 -1.0000e+00
       15  1    3    3    0    0 +2.4204531975e+01 -1.1143104275e+01 -1.9278239998e+02 1.9462332751e+02 1.7770000000e+00 0.0000e+00 1.0000e+00
       -2  1    1    2    0  502 +1.3426252501e+02 -6.9228549231e+00 -2.8073630700e+01 1.3734074517e+02 0.0000000000e+00 0.0000e+00 1.0000e+00
       -3  1    1    2    0  501 -1.4375419269e+02 -1.4576795916e+01 -2.9089504879e+03 2.9125368138e+03 0.0000000000e+00 0.0000e+00 1.0000e+00
<scales pt_clust_4="13000.00000" pt_clust_5="13000.00000" pt_clust_6="134.67356" pt_clust_7="13000.00000"></scales>
<mgrwt>
<rscale>  1 0.12179643E+03</rscale>
<asrwt>  1 0.13467356E+03</asrwt>
<pdfrwt beam="1">  1       -2 0.88531517E-02 0.13467356E+03</pdfrwt>
<pdfrwt beam="2">  1       -3 0.73956751E+00 0.90093027E+02</pdfrwt>
<totfact> 0.23738145E-02</totfact>
</mgrwt>
<clustering>
<clus scale="   86.974">  4  5 -1 -1</clus>
<clus scale="   90.093">  2  4  1 -1</clus>
<clus scale="  134.674">  1  6  2 -1</clus>
<clus scale="  134.674">  1  4  2 -1</clus>
</clustering>
</event>
<event>
 7      2 +6.5488130e-01 3.80663400e+02 7.54677100e-03 9.71263900e-02
        2 -1    0    0  501    0 +0.0000000000e+00 +0.0000000000e+00 +3.9009627639e+02 3.9009627639e+02 0.0000000000e+00 0.0000e+00 1.0000e+00
        2 -1    0    0  502    0 -0.0000000000e+00 -0.0000000000e+00 -1.7675265666e+03 1.7675265666e+03 0.0000000000e+00 0.0000e+00 -1.0000e+00
       23  2    1    2    0    0 +1.1695236746e+02 -3.4846693563e+02 -1.5019982324e+03 1.5489630215e+03 9.0447168421e+01 0.0000e+00 0.0000e+00
      -13  1    3    3    0    0 +2.8536541544e+01 -4.2078237580e+01 -1.1432857979e+02 1.2512368456e+02 0.0000000000e+00 0.0000e+00 1.0000e+00
       13  1    3    3    0    0 +8.8415825920e+01 -3.0638869805e+02 -1.3876696526e+03 1.4238393369e+03 0.0000000000e+00 0.0000e+00 -1.0000e+00
        2  1    1    2  501    0 -1.1217956446e+02 +3.6740200186e+02 -8.8901310602e+01 3.9429928821e+02 0.0000000000e+00 0.0000e+00 -1.0000e+00
        2  1    1    2  502    0 -4.7728029995e+00 -1.8935066230e+01 +2.1346925276e+02 2.1436053335e+02 0.0000000000e+00 0.0000e+00 1.0000e+00
<scales pt_clust_4="13000.00000" pt_clust_5="13000.00000" pt_clust_6="369.76200" pt_clust_7="19.52732"></scales>
<mgrwt>
<rscale>  0 0.38066340E+03</rscale>
<asrwt>  2 0.19527324E+02 0.36976200E+03</asrwt>
<pdfrwt beam="1">  3        2       21       -2 0.60014811E-01 0.27089697E-01 0.17801256E-03 0.19527324E+02 0.36976200E+03 0.38066340E+03</pdfrwt>
<pdfrwt beam="2">  1        2 0.27192717E+00 0.19527324E+02</pdfrwt>
<totfact> 0.58073264E+00</totfact>
</mgrwt>
<clustering>
<clus scale="   19.527">  1  7  2 -1</clus>
<clus scale="   90.447">  4  5 -1 -1</clus>
<clus scale="  369.762">  1  6  2 -1</clus>
<clus scale="   19.527">  1  4  2 -1</clus>
</clustering>
</event>
<event>
 7      2 +6.5488130e-01 1.38084400e+02 7.54677100e-03 1.11049900e-01
        3 -1    0    0  501    0 +0.0000000000e+00 +0.0000000000e+00 +7.2890641796e+01 7.2890641796e+01 0.0000000000e+00 0.0000e+00 1.0000e+00
       -3 -1    0    0    0  501 -0.0000000000e+00 -0.0000000000e+00 -1.2653418745e+03 1.2653418745e+03 0.0000000000e+00 0.0000e+00 1.0000e+00
       23  2    1    2    0    0 -8.9442835451e+01 +4.9900811118e+00 -5.3566165335e+02 5.5113866695e+02 9.3784335651e+01 0.0000e+00 0.0000e+00
      -11  1    3    3    0    0 -8.7401001756e+01 -2.7479607930e+01 -4.5557094372e+02 4.6469231618e+02 0.0000000000e+00 0.0000e+00 -1.0000e+00
       11  1    3    3    0    0 -2.0418336949e+00 +3.2469689041e+01 -8.0090709632e+01 8.6446350766e+01 0.0000000000e+00 0.0000e+00 1.0000e+00
        3  1    1    2  502    0 +7.5937351897e+00 -1.1163133383e+02 +4.7926092438e+00 1.1199191315e+02 0.0000000000e+00 0.0000e+00 1.0000e+00
       -3  1    1    2    0  502 +8.1849100261e+01 +1.0664125272e+02 -6.6158218860e+02 6.7510193620e+02 0.0000000000e+00 0.0000e+00 1.0000e+00
<scales pt_clust_4="13000.00000" pt_clust_5="13000.00000" pt_clust_6="111.88932" pt_clust_7="101.34992"></scales>
<mgrwt>
<rscale>  0 0.13808442E+03</rscale>
<asrwt>  2 0.11188932E+03 0.10134992E+03</asrwt>
<pdfrwt beam="1">  2        3        3 0.11213944E-01 0.26734949E-03 0.11188932E+03 0.13808442E+03</pdfrwt>
<pdfrwt beam="2">  1       -3 0.19466799E+00 0.11188932E+03</pdfrwt>
<totfact> 0.47159352E-01</totfact>
</mgrwt>
<clustering>
<clus scale="   93.784">  4  5 -1 -1</clus>
<clus scale="  111.889">  1  6  2 -1</clus>
<clus scale="  101.350">  1  7  2 -1</clus>
<clus scale="  111.889">  1  4  2 -1</clus>
</clustering>
</event>
<event>
 7      2 +6.5488130e-01 2.33041000e+02 7.54677100e-03 1.03389900e-01
       -1 -1    0    0    0  501 -0.0000000000e+00 +0.0000000000e+00 +3.8544507174e+02 3.8544507174e+02 0.0000000000e+00 0.0000e+00 1.0000e+00
       21 -1    0    0  503  502 +0.0000000000e+00 -0.0000000000e+00 -2.1212488226e+02 2.1212488226e+02 0.0000000000e+00 0.0000e+00 1.0000e+00
       23  2    1    2    0    0 +1.7844619832e+02 -1.0874011975e+02 +1.1988102547e+02 2.5777940750e+02 9.1713157852e+01 0.0000e+00 0.0000e+00
      -15  1    3    3    0    0 +1.0349961918e+02 -4.0578587101e+01 +1.5414107460e+01 1.1224769636e+02 1.7770000000e+00 0.0000e+00 -1.0000e+00
       15  1    3    3    0    0 +7.4946579144e+01 -6.8161532647e+01 +1.0446691801e+02 1.4553171113e+02 1.7770000000e+00 0.0000e+00 1.0000e+00
       21  1    1    2  503  501 +6.0060657766e+00 -9.1783484908e+00 -8.1754961791e+01 8.2487506233e+01 0.0000000000e+00 0.0000e+00 1.0000e+00
       -1  1    1    2    0  502 -1.8445226410e+02 +1.1791846824e+02 +1.3519412580e+02 2.5730304027e+02 0.0000000000e+00 0.0000e+00 1.0000e+00
<scales pt_clust_4="13000.00000" pt_clust_5="13000.00000" pt_clust_6="10.96882" pt_clust_7="214.23552"></scales>
<mgrwt>
<rscale>  0 0.23304101E+03</rscale>
<asrwt>  2 0.10968815E+02 0.21423552E+03</asrwt>
<pdfrwt beam="1">  3       21       21        1 0.32634597E-01 0.19969550E-01 0.83931976E-03 0.10968815E+02 0.21423552E+03 0.23304101E+03</pdfrwt>
<pdfrwt beam="2">  1       -1 0.59299242E-01 0.10968815E+02</pdfrwt>
<totfact> 0.13492109E+02</totfact>
</mgrwt>
<clustering>
<clus scale="   10.969">  2  6  1 -1</clus>
<clus scale="   91.713">  4  5 -1 -1</clus>
<clus scale="  214.236">  2  7  1 -1</clus>
<clus scale="   10.969">  2  4  1 -1</clus>
</clustering>
</event>
<event>
 7      2 +6.5488130e-01 4.43982000e+02 7.54677100e-03 9.53182300e-02
        2 -1    0    0  503    0 -0.0000000000e+00 +0.0000000000e+00 +2.5969485720e+03 2.5969485720e+03 0.0000000000e+00 0.0000e+00 -1.0000e+00
       21 -1    0    0  501  502 +0.0000000000e+00 -0.0000000000e+00 -4.0477395953e+01 4.0477395953e+01 0.0000000000e+00 0.0000e+00 -1.0000e+00
       23  2    1    2    0    0 +8.2860985390e+01 -1.5759464969e+01 +1.0739314312e+03 1.0810940673e+03 9.1221488430e+01 0.0000e+00 0.0000e+00
      -15  1    3    3    0    0 +4.9020894245e+01 +3.0275095554e+01 +3.3226873700e+02 3.3723182056e+02 1.7770000000e+00 0.0000e+00 1.0000e+00
       15  1    3    3    0    0 +3.3840091144e+01 -4.6034560522e+01 +7.4166269417e+02 7.4386224678e+02 1.7770000000e+00 0.0000e+00 -1.0000e+00
       21  1    1    2  503  502 +7.7780571750e+01 +1.4406669086e+02 +1.1753081452e+03 1.1866567595e+03 0.0000000000e+00 0.0000e+00 -1.0000e+00
        2  1    1    2  501    0 -1.6064155714e+02 -1.2830722589e+02 +3.0723159968e+02 3.6967514109e+02 0.0000000000e+00 0.0000e+00 -1.0000e+00
<scales pt_clust_4="13000.00000" pt_clust_5="13000.00000" pt_clust_6="163.72250" pt_clust_7="13000.00000"></scales>
<mgrwt>
<rscale>  1 0.44398196E+03</rscale>
<asrwt>  1 0.16372250E+03</asrwt>
<pdfrwt beam="1">  2       21       21 0.62272937E-02 0.25224131E-02 0.16372250E+03 0.44398196E+03</pdfrwt>
<pdfrwt beam="2">  1        2 0.39953042E+00 0.16372250E+03</pdfrwt>
<totfact> 0.97397726E+01</totfact>
</mgrwt>
<clustering>
<clus scale="   91.221">  4  5 -1 -1</clus>
<clus scale="  163.722">  2  6  1 -1</clus>
<clus scale="   90.870">  4  7 -1 -1</clus>
<clus scale="  163.722">  2  4  1 -1</clus>
</clustering>
</event>
<event>
 6      2 +6.5488130e-01 2.86431400e+02 7.54677100e-03 1.00659000e-01
        2 -1    0    0  502    0 -0.0000000000e+00 +0.0000000000e+00 +9.4713655116e+02 9.4713655116e+02 0.0000000000e+00 0.0000e+00 -1.0000e+00
       21 -1    0    0  503  502 +0.0000000000e+00 -0.0000000000e+00 -9.9387744775e+01 9.9387744775e+01 0.0000000000e+00 0.0000e+00 -1.0000e+00
      -11  1    1    2    0    0 -1.8923702427e+02 -1.0753746952e+01 +2.0647753945e+02 2.8028426414e+02 0.0000000000e+00 0.0000e+00 1.0000e+00
       11  1    1    2    0    0 -5.7515289087e+01 +5.6385716954e+01 +3.2703972435e+01 8.6930474336e+01 0.0000000000e+00 0.0000e+00 -1.0000e+00
       21  1    1    2  503  501 -9.3716048736e+00 +1.5655576779e+01 +2.3975255284e+00 1.8403048412e+01 0.0000000000e+00 0.0000e+00 -1.0000e+00
        2  1    1    2  501    0 +2.5612391823e+02 -6.1287546781e+01 +6.0616976897e+02 6.6090650904e+02 0.0000000000e+00 0.0000e+00 -1.0000e+00
<scales pt_clust_3="13000.00000" pt_clust_4="13000.00000" pt_clust_5="18.24621" pt_clust_6="259.56338"></scales>
<mgrwt>
<rscale>  0 0.28643144E+03</rscale>
<asrwt>  2 0.18246207E+02 0.25956338E+03</asrwt>
<pdfrwt beam="1">  3       21       21       -2 0.15290423E-01 0.13891328E-01 0.59571819E-03 0.18246207E+02 0.25956338E+03 0.28643144E+03</pdfrwt>
<pdfrwt beam="2">  1        2 0.14571331E+00 0.18246207E+02</pdfrwt>
<totfact> 0.44830261E+02</totfact>
</mgrwt>
<clustering>
<clus scale="   18.246">  2  5  1 -1</clus>
<clus scale="   80.738">  3  4 -1 -1</clus>
<clus scale="  259.563">  2  6  1 -1</clus>
<clus scale="   18.246">  2  3  1 -1</clus>
</clustering>
</event>
<event>
 7      2 +6.5488130e-01 2.72425400e+02 7.54677100e-03 1.01309000e-01
        3 -1    0    0  501    0 +0.0000000000e+00 +0.0000000000e+00 +4.3958358811e+02 4.3958358811e+02 0.0000000000e+00 0.0000e+00 -1.0000e+00
       -2 -1    0    0    0  501 -0.0000000000e+00 -0.0000000000e+00 -3.8037648351e+02 3.8037648351e+02 0.0000000000e+00 0.0000e+00 -1.0000e+00
       23  2    1    2    0    0 +4.3498658065e+01 -2.0467207249e+01 +2.8252681081e+02 2.9967157804e+02 8.7582053143e+01 0.0000e+00 0.0000e+00
      -15  1    3    3    0    0 +6.9711992692e+01 -2.2980872279e+01 +2.0205727598e+02 2.1498414575e+02 1.7770000000e+00 0.0000e+00 1.0000e+00
       15  1    3    3    0    0 -2.6213334628e+01 +2.5136650296e+00 +8.0469534827e+01 8.4687432294e+01 1.7770000000e+00 0.0000e+00 -1.0000e+00
        3  1    1    2  502    0 +1.1545386765e+02 +7.0245904646e+01 +9.2132477258e+01 1.6356184164e+02 0.0000000000e+00 0.0000e+00 -1.0000e+00
       -2  1    1    2    0  502 -1.5895252571e+02 -4.9778697396e+01 -3.1545218347e+02 3.5672665194e+02 0.0000000000e+00 0.0000e+00 -1.0000e+00
<scales pt_clust_4="13000.00000" pt_clust_5="13000.00000" pt_clust_6="13000.00000" pt_clust_7="166.56477"></scales>
<mgrwt>
<rscale>  1 0.27242544E+03</rscale>
<asrwt>  1 0.16656477E+03</asrwt>
<pdfrwt beam="1">  1        3 0.67628244E-01 0.27242544E+03</pdfrwt>
<pdfrwt beam="2">  2       -2       21 0.58519459E-01 0.40660679E-02 0.16656477E+03 0.27242544E+03</pdfrwt>
<totfact> 0.47521375E-01</totfact>
</mgrwt>
<clustering>
<clus scale="   87.582">  4  5 -1 -1</clus>
<clus scale="  135.145">  4  6 -1 -1</clus>
<clus scale="  166.565">  2  7  1 -1</clus>
<clus scale="  272.425">  1  4  2 -1</clus>
</clustering>
</event>
<event>
 7      2 +6.5488130e-01 1.58953600e+02 7.54677100e-03 1.08877800e-01
        1 -1    0    0  503    0 -0.0000000000e+00 +0.0000000000e+00 +2.2217223373e+01 2.2217223373e+01 0.0000000000e+00 0.0000e+00 -1.0000e+00
       21 -1    0    0  501  502 +0.0000000000e+00 -0.0000000000e+00 -2.0217771189e+03 2.0217771189e+03 0.0000000000e+00 0.0000e+00 -1.0000e+00
       23  2    1    2    0    0 +5.1670439221e+01 -4.0664080626e+01 -2.3806106958e+02 2.6327051999e+02 9.1186030195e+01 0.0000e+00 0.0000e+00
      -13  1    3    3    0    0 +6.7930786323e+01 -5.6574053238e+01 -1.7176301713e+02 1.9317802485e+02 0.0000000000e+00 0.0000e+00 -1.0000e+00
       13  1    3    3    0    0 -1.6260347102e+01 +1.5909972612e+01 -6.6298052455e+01 7.0092495145e+01 0.0000000000e+00 0.0000e+00 1.0000e+00
       21  1    1    2  503  502 +9.5579144608e+01 -6.6380162461e+00 -4.4665916111e+02 4.5681926661e+02 0.0000000000e+00 0.0000e+00 -1.0000e+00
        1  1    1    2  501    0 -1.4724958383e+02 +4.7302096872e+01 -1.3148396648e+03 1.3239045557e+03 0.0000000000e+00 0.0000e+00 -1.0000e+00
<scales pt_clust_4="13000.00000" pt_clust_5="13000.00000" pt_clust_6="95.80937" pt_clust_7="130.19735"></scales>
<mgrwt>
<rscale>  0 0.15895359E+03</rscale>
<asrwt>  2 0.95809374E+02 0.13019735E+03</asrwt>
<pdfrwt beam="1">  2       21       -1 0.31104275E+00 0.26271498E-01 0.13019735E+03 0.15895359E+03</pdfrwt>
<pdfrwt beam="2">  2        1        1 0.34180330E-02 0.18727727E-02 0.95809374E+02 0.15895359E+03</pdfrwt>
<totfact> 0.91974606E+00</totfact>
</mgrwt>
<clustering>
<clus scale="   91.186">  4  5 -1 -1</clus>
<clus scale="   95.809">  1  6  2 -1</clus>
<clus scale="  130.197">  2  7  1 -1</clus>
<clus scale="  130.197">  2  4  1 -1</clus>
</clustering>
</event>
<event>
 7      2 +6.5488130e-01 2.18419600e+02 7.54677100e-03 1.04279400e-01
        2 -1    0    0  501    0 +0.0000000000e+00 +0.0000000000e+00 +1.9674408410e+03 1.9674408410e+03 0.0000000000e+00 0.0000e+00 -1.0000e+00
       -1 -1    0    0    0  501 -0.0000000000e+00 -0.0000000000e+00 -1.3808816134e+01 1.3808816134e+01 0.0000000000e+00 0.0000e+00 -1.0000e+00
       23  2    1    2    0    0 +2.6209015539e+01 -1.0333150152e+01 +9.8021630615e+02 9.8474534884e+02 9.0031709524e+01 0.0000e+00 0.0000e+00
      -13  1    3    3    0    0 -1.2913198673e+01 -3.4932746605e+00 +2.2290139104e+01 2.5996229902e+01 0.0000000000e+00 0.0000e+00 1.0000e+00
       13  1    3    3    0    0 +3.9122214213e+01 -6.8398754912e+00 +9.5792616705e+02 9.5874911894e+02 0.0000000000e+00 0.0000e+00 -1.0000e+00
        2  1    1    2  502    0 +6.0810462829e+01 +7.8579131032e+01 +3.7407090222e+02 3.8704215806e+02 0.0000000000e+00 0.0000e+00 -1.0000e+00
       -1  1    1    2    0  502 -8.7019478368e+01 -6.8245980881e+01 +5.9934481647e+02 6.0946215022e+02 0.0000000000e+00 0.0000e+00 -1.0000e+00
<scales pt_clust_4="13000.00000" pt_clust_5="13000.00000" pt_clust_6="13000.00000" pt_clust_7="110.58889"></scales>
<mgrwt>
<rscale>  1 0.21841960E+03</rscale>
<asrwt>  1 0.11058889E+03</asrwt>
<pdfrwt beam="1">  1        2 0.30268298E+00 0.21841960E+03</pdfrwt>
<pdfrwt beam="2">  2       -1       21 0.21244348E-02 0.69354532E-03 0.11058889E+03 0.21841960E+03</pdfrwt>
<totfact> 0.74087877E+01</totfact>
</mgrwt>
<clustering>
<clus scale="   90.032">  4  5 -1 -1</clus>
<clus scale="   99.361">  4  6 -1 -1</clus>
<clus scale="  110.589">  2  7  1 -1</clus>
<clus scale="  218.420">  1  4  2 -1</clus>
</clustering>
</event>
<event>
 7      2 +6.5488130e-01 2.42928200e+02 7.54677100e-03 1.04662600e-01
       -4 -1    0    0    0  501 +0.0000000000e+00 +0.0000000000e+00 +8.8601244677e+02 8.8601244677e+02 0.0000000000e+00 0.0000e+00 1.0000e+00
       -3 -1    0    0    0  502 -0.0000000000e+00 -0.0000000000e+00 -1.4906210330e+02 1.4906210330e+02 0.0000000000e+00 0.0000e+00 1.0000e+00
       23  2    1    2    0    0 -6.3320238527e+01 +8.7486539032e+01 +2.9352784276e+02 3.2614658675e+02 9.2464341540e+01 0.0000e+00 0.0000e+00
      -11  1    3    3    0    0 -2.6455730837e+01 +9.3948179295e+01 +2.5200635576e+02 2.7024686757e+02 0.0000000000e+00 0.0000e+00 -1.0000e+00
       11  1    3    3    0    0 -3.6864507691e+01 -6.4616402630e+00 +4.1521486994e+01 5.5899719179e+01 0.0000000000e+00 0.0000e+00 1.0000e+00
       -4  1    1    2    0  502 +1.5379531690e+02 +1.5437314274e+02 +3.8772129078e+02 4.4476045915e+02 0.0000000000e+00 0.0000e+00 1.0000e+00
       -3  1    1    2    0  501 -9.0475078375e+01 -2.4185968177e+02 +5.5701209922e+01 2.6416750417e+02 0.0000000000e+00 0.0000e+00 1.0000e+00
<scales pt_clust_4="13000.00000" pt_clust_5="13000.00000" pt_clust_6="242.92817" pt_clust_7="13000.00000"></scales>
<mgrwt>
<rscale>  2 0.21247717E+03</rscale>
<asrwt>0</asrwt>
<pdfrwt beam="1">  1       -4 0.13630960E+00 0.14217244E+03</pdfrwt>
<pdfrwt beam="2">  1       -3 0.22932632E-01 0.14217244E+03</pdfrwt>
<totfact> 0.18175536E-01</totfact>
</mgrwt>
<clustering>
<clus scale="   92.464">  4  5 -1 -1</clus>
<clus scale="  142.172">  1  4  2 -1</clus>
<clus scale="  242.928">  1  6  2 -1</clus>
<clus scale="  142.172">  1  4  2 -1</clus>
</clustering>
</event>
<event>
 7      2 +6.5488130e-01 3.56788300e+02 7.54677100e-03 9.79082800e-02
        2 -1    0    0  502    0 +0.0000000000e+00 +0.0000000000e+00 +1.5790387520e+03 1.5790387520e+03 0.0000000000e+00 0.0000e+00 1.0000e+00
       -2 -1    0    0    0  501 -0.0000000000e+00 -0.0000000000e+00 -7.8335445145e+01 7.8335445145e+01 0.0000000000e+00 0.0000e+00 -1.0000e+00
       23  2    1    2    0    0 -1.7089427500e+02 +2.9921637126e+02 +8.1823046444e+02 8.9263599434e+02 9.2534509213e+01 0.0000e+00 0.0000e+00
      -11  1    3    3    0    0 -1.6696624852e+02 +3.0599526014e+02 +7.9341333711e+02 8.6661153401e+02 0.0000000000e+00 0.0000e+00 1.0000e+00
       11  1    3    3    0    0 -3.9280264782e+00 -6.7788888842e+00 +2.4817127326e+01 2.6024460325e+01 0.0000000000e+00 0.0000e+00 -1.0000e+00
       21  1    1    2  502  503 +5.1389503367e+01 -1.0396155952e+02 +2.4028094331e+02 2.6680295844e+02 0.0000000000e+00 0.0000e+00 1.0000e+00
       21  1    1    2  503  501 +1.1950477163e+02 -1.9525481174e+02 +4.4219189910e+02 4.9793524436e+02 0.0000000000e+00 0.0000e+00 -1.0000e+00
<scales pt_clust_4="13000.00000" pt_clust_5="13000.00000" pt_clust_6="12.73311" pt_clust_7="345.04397"></scales>
<mgrwt>
<rscale>  0 0.35678835E+03</rscale>
<asrwt>  2 0.12733105E+02 0.34504397E+03</asrwt>
<pdfrwt beam="1">  1        2 0.24292902E+00 0.35678835E+03</pdfrwt>
<pdfrwt beam="2">  2       -2       -2 0.12051608E-01 0.20856496E-03 0.34504397E+03 0.35678835E+03</pdfrwt>
<totfact> 0.11797913E+01</totfact>
</mgrwt>
<clustering>
<clus scale="   12.733">  6  7 -1 -1</clus>
<clus scale="   92.535">  4  5 -1 -1</clus>
<clus scale="  345.044">  2  6  1 -1</clus>
<clus scale="  356.788">  1  4  2 -1</clus>
</clustering>
</event>
<event>
 7      2 +6.5488130e-01 5.22168100e+02 7.54677100e-03 9.34857300e-02
       21 -1    0    0  503  502 +0.0000000000e+00 +0.0000000000e+00 +2.3857505361e+02 2.3857505361e+02 0.0000000000e+00 0.0000e+00 1.0000e+00
       21 -1    0    0  501  503 -0.0000000000e+00 -0.0000000000e+00 -3.0889908108e+02 3.0889908108e+02 0.0000000000e+00 0.0000e+00 1.0000e+00
       23  2    1    2    0    0 -2.1726779141e+02 +1.2729155222e+02 -9.0371813830e+01 2.8570137291e+02 1.0024857753e+02 0.0000e+00 0.0000e+00
      -15  1    3    3    0    0 -1.5543112288e+02 +4.8863356097e+01 -2.1460243675e+01 1.6434768425e+02 1.7770000000e+00 0.0000e+00 1.0000e+00
       15  1    3    3    0    0 -6.1836668524e+01 +7.8428196125e+01 -6.8911570155e+01 1.2135368866e+02 1.7770000000e+00 0.0000e+00 -1.0000e+00
        4  1    1    2  501    0 +2.0500089030e+00 -1.5319506383e+01 +1.1054987884e+01 1.9002699004e+01 0.0000000000e+00 0.0000e+00 -1.0000e+00
       -4  1    1    2    0  502 +2.1521778250e+02 -1.1197204584e+02 +8.9927984753e+00 2.4277006278e+02 0.0000000000e+00 0.0000e+00 1.0000e+00
<scales pt_clust_4="13000.00000" pt_clust_5="13000.00000" pt_clust_6="15.45607" pt_clust_7="13000.00000"></scales>
<mgrwt>
<rscale>  1 0.52216809E+03</rscale>
<asrwt>  1 0.15456068E+02</asrwt>
<pdfrwt beam="1">  1       21 0.36703854E-01 0.52216809E+03</pdfrwt>
<pdfrwt beam="2">  2       21       -4 0.47522936E-01 0.43917904E-01 0.15456068E+02 0.52216809E+03</pdfrwt>
<totfact> 0.79482942E+02</totfact>
</mgrwt>
<clustering>
<clus scale="   15.456">  2  6  1 -1</clus>
<clus scale="  100.249">  4  5 -1 -1</clus>
<clus scale="  246.059">  4  7 -1 -1</clus>
<clus scale="  522.168">  1  4  2 -1</clus>
</clustering>
</event>
<event>
 7      2 +6.5488130e-01 2.92357400e+02 7.54677100e-03 1.00396000e-01
       21 -1    0    0  503  502 +0.0000000000e+00 +0.0000000000e+00 +3.6143598667e+02 3.6143598667e+02 0.0000000000e+00 0.0000e+00 -1.0000e+00
        2 -1    0    0  502    0 -0.0000000000e+00 -0.0000000000e+00 -1.4972482192e+02 1.4972482192e+02 0.0000000000e+00 0.0000e+00 -1.0000e+00
       23  2    1    2    0    0 +1.5578734247e+01 -4.9720123154e+01 +6.1835052221e+00 1.0560553968e+02 9.1648822506e+01 0.0000e+00 0.0000e+00
      -11  1    3    3    0    0 +2.2306684826e+01 +2.2567635637e+01 +8.8953948683e+00 3.2954732832e+01 0.0000000000e+00 0.0000e+00 -1.0000e+00
       11  1    3    3    0    0 -6.7279505785e+00 -7.2287758791e+01 -2.7118896462e+00 7.2650806847e+01 0.0000000000e+00 0.0000e+00 1.0000e+00
       21  1    1    2  503  501 +1.1000408578e+02 -8.7400494005e+01 +1.6228704089e+02 2.1465513943e+02 0.0000000000e+00 0.0000e+00 -1.0000e+00
        2  1    1    2  501    0 -1.2558282003e+02 +1.3712061716e+02 +4.3240618639e+01 1.9090012948e+02 0.0000000000e+00 0.0000e+00 -1.0000e+00
<scales pt_clust_4="13000.00000" pt_clust_5="13000.00000" pt_clust_6="140.49820" pt_clust_7="13000.00000"></scales>
<mgrwt>
<rscale>  1 0.29235743E+03</rscale>
<asrwt>  1 0.14049820E+03</asrwt>
<pdfrwt beam="1">  2       21       21 0.55605536E-01 0.16885624E-01 0.14049820E+03 0.29235743E+03</pdfrwt>
<pdfrwt beam="2">  1        2 0.23034588E-01 0.14049820E+03</pdfrwt>
<totfact> 0.10940136E+02</totfact>
</mgrwt>
<clustering>
<clus scale="   91.649">  4  5 -1 -1</clus>
<clus scale="  140.498">  1  6  2 -1</clus>
<clus scale="   93.233">  4  7 -1 -1</clus>
<clus scale="  140.498">  1  4  2 -1</clus>
</clustering>
</event>
<event>
 7      2 +6.5488130e-01 2.74199200e+02 7.54677100e-03 1.01224300e-01
        1 -1    0    0  503    0 -0.0000000000e+00 +0.0000000000e+00 +2.3749345079e+03 2.3749345079e+03 0.0000000000e+00 0.0000e+00 -1.0000e+00
       21 -1    0    0  501  502 +0.0000000000e+00 -0.0000000000e+00 -1.4925313367e+02 1.4925313367e+02 0.0000000000e+00 0.0000e+00 -1.0000e+00
       23  2    1    2    0    0 +1.9738953348e+02 +2.4072986379e+02 +7.3449707138e+02 8.0329756824e+02 9.4273750487e+01 0.0000e+00 0.0000e+00
      -13  1    3    3    0    0 -6.9096027162e+00 +5.7691792467e+00 +5.6654389680e+01 5.7365023393e+01 0.0000000000e+00 0.0000e+00 1.0000e+00
       13  1    3    3    0    0 +2.0429913619e+02 +2.3496068454e+02 +6.7784268170e+02 7.4593254484e+02 0.0000000000e+00 0.0000e+00 -1.0000e+00
       21  1    1    2  503  502 -2.1883691116e+02 +1.9621056689e+01 +1.4375049584e+03 1.4541991215e+03 0.0000000000e+00 0.0000e+00 -1.0000e+00
        1  1    1    2  501    0 +2.1447377685e+01 -2.6035092047e+02 +5.3679344534e+01 2.6669095191e+02 0.0000000000e+00 0.0000e+00 -1.0000e+00
<scales pt_clust_4="13000.00000" pt_clust_5="13000.00000" pt_clust_6="219.71477" pt_clust_7="257.48337"></scales>
<mgrwt>
<rscale>  0 0.27419925E+03</rscale>
<asrwt>  2 0.21971477E+03 0.25748337E+03</asrwt>
<pdfrwt beam="1">  2       21       -1 0.22962022E-01 0.42929112E-03 0.25748337E+03 0.27419925E+03</pdfrwt>
<pdfrwt beam="2">  2        1        1 0.36537451E+00 0.12250194E+00 0.21971477E+03 0.27419925E+03</pdfrwt>
<totfact> 0.40482383E+00</totfact>
</mgrwt>
<clustering>
<clus scale="   94.274">  4  5 -1 -1</clus>
<clus scale="  219.715">  1  6  2 -1</clus>
<clus scale="  257.483">  2  7  1 -1</clus>
<clus scale="  257.483">  2  4  1 -1</clus>
</clustering>
</event>
<event>
 7      2 +6.5488130e-01 1.65351400e+02 7.54677100e-03 1.08284600e-01
       -1 -1    0    0    0  501 -0.0000000000e+00 +0.0000000000e+00 +6.8527097349e+01 6.8527097349e+01 0.0000000000e+00 0.0000e+00 1.0000e+00
        2 -1    0    0  501    0 +0.0000000000e+00 -0.0000000000e+00 -2.3209237799e+03 2.3209237799e+03 0.0000000000e+00 0.0000e+00 1.0000e+00
       23  2    1    2    0    0 +1.8697011848e+02 +4.4444796564e+01 -4.2612953302e+02 4.7611903948e+02 9.0386922140e+01 0.0000e+00 0.0000e+00
      -15  1    3    3    0    0 +1.9296318761e+02 +5.2009708877e+01 -3.8439685682e+02 4.3324808465e+02 1.7770000000e+00 0.0000e+00 -1.0000e+00
       15  1    3    3    0    0 -5.9930691312e+00 -7.5649123132e+00 -4.1732676203e+01 4.2870954830e+01 1.7770000000e+00 0.0000e+00 1.0000e+00
        2  1    1    2  502    0 -9.2646178782e+01 -9.9363840152e+01 -1.7945286381e+03 1.7996637242e+03 0.0000000000e+00 0.0000e+00 1.0000e+00
       -1  1    1    2    0  502 -9.4323939696e+01 +5.4919043589e+01 -3.1738511484e+01 1.1366811365e+02 0.0000000000e+00 0.0000e+00 1.0000e+00
<scales pt_clust_4="13000.00000" pt_clust_5="13000.00000" pt_clust_6="138.46050" pt_clust_7="109.14718"></scales>
<mgrwt>
<rscale>  0 0.16535140E+03</rscale>
<asrwt>  2 0.10914718E+03 0.13846050E+03</asrwt>
<pdfrwt beam="1">  1        2 0.35706520E+00 0.16535140E+03</pdfrwt>
<pdfrwt beam="2">  3       -1       21       -2 0.10542630E-01 0.39101037E-02 0.13538700E-03 0.10914718E+03 0.13846050E+03 0.16535140E+03</pdfrwt>
<totfact> 0.51328263E+00</totfact>
</mgrwt>
<clustering>
<clus scale="   90.387">  4  5 -1 -1</clus>
<clus scale="  109.147">  1  7  2 -1</clus>
<clus scale="  138.460">  1  6  2 -1</clus>
<clus scale="  165.351">  2  4  1 -1</clus>
</clustering>
</event>
<event>
 6      1 +6.5488130e-01 3.58092200e+02 7.54677100e-03 9.78639100e-02
        1 -1    0    0  502    0 -0.0000000000e+00 +0.0000000000e+00 +7.7724513683e+02 7.7724513683e+02 0.0000000000e+00 0.0000e+00 -1.0000e+00
       21 -1    0    0  501  502 +0.0000000000e+00 -0.0000000000e+00 -2.0490386168e+02 2.0490386168e+02 0.0000000000e+00 0.0000e+00 -1.0000e+00
       23  2    1    2    0    0 -1.1440173010e+02 -3.2681768662e+02 +5.8966650349e+01 3.6291474435e+02 9.1282471878e+01 0.0000e+00 0.0000e+00
      -15  1    3    3    0    0 -9.3423405047e+01 -3.2235525839e+02 +6.1606958971e+01 3.4123220884e+02 1.7770000000e+00 0.0000e+00 -1.0000e+00
       15  1    3    3    0    0 -2.0978325049e+01 -4.4624282304e+00 -2.6403086219e+00 2.1682535511e+01 1.7770000000e+00 0.0000e+00 1.0000e+00
        1  1    1    2  501    0 +1.1440173010e+02 +3.2681768662e+02 +5.1337462480e+02 6.1923425416e+02 0.0000000000e+00 0.0000e+00 -1.0000e+00
<scales pt_clust_4="13000.00000" pt_clust_5="13000.00000" pt_clust_6="346.26244"></scales>
<mgrwt>
<rscale>  0 0.35809223E+03</rscale>
<asrwt>  1 0.34626244E+03</asrwt>
<pdfrwt beam="1">  2       21       -1 0.31523671E-01 0.41232857E-03 0.34626244E+03 0.35809223E+03</pdfrwt>
<pdfrwt beam="2">  1        1 0.11957617E+00 0.34626244E+03</pdfrwt>
<totfact> 0.26496115E+02</totfact>
</mgrwt>
<clustering>
<clus scale="   91.282">  4  5 -1 -1</clus>
<clus scale="  346.262">  2  6  1 -1</clus>
<clus scale="  346.262">  2  4  1 -1</clus>
</clustering>
</event>
<event>
 6      2 +6.5488130e-01 2.17896400e+02 7.54677100e-03 1.04312600e-01
       21 -1    0    0  503  502 +0.0000000000e+00 +0.0000000000e+00 +3.7886470017e+02 3.7886470017e+02 0.0000000000e+00 0.0000e+00 -1.0000e+00
       -4 -1    0    0    0  501 -0.0000000000e+00 -0.0000000000e+00 -1.8234910763e+02 1.8234910763e+02 0.0000000000e+00 0.0000e+00 -1.0000e+00
      -11  1    1    2    0    0 -3.6336980058e+01 +1.2814386162e+01 -1.5964618004e+00 3.8563367368e+01 0.0000000000e+00 0.0000e+00 1.0000e+00
       11  1    1    2    0    0 -1.2544530032e+02 -6.5907493349e+01 -2.6431667575e+01 1.4414906904e+02 0.0000000000e+00 0.0000e+00 -1.0000e+00
       21  1    1    2  503  501 -6.4358023018e+01 +1.7063841096e+01 +1.5322076369e+01 6.8322001025e+01 0.0000000000e+00 0.0000e+00 -1.0000e+00
       -4  1    1    2    0  502 +2.2614030340e+02 +3.6029266090e+01 +2.0922164555e+02 3.1017937037e+02 0.0000000000e+00 0.0000e+00 -1.0000e+00
<scales pt_clust_3="13000.00000" pt_clust_4="13000.00000" pt_clust_5="66.58175" pt_clust_6="209.45873"></scales>
<mgrwt>
<rscale>  0 0.21789638E+03</rscale>
<asrwt>  2 0.66581753E+02 0.20945873E+03</asrwt>
<pdfrwt beam="1">  2       21        4 0.58286877E-01 0.10218644E-02 0.20945873E+03 0.21789638E+03</pdfrwt>
<pdfrwt beam="2">  2       -4       -4 0.28053709E-01 0.20880005E-01 0.66581753E+02 0.21789638E+03</pdfrwt>
<totfact> 0.21767413E+01</totfact>
</mgrwt>
<clustering>
<clus scale="   31.312">  3  4 -1 -1</clus>
<clus scale="   66.582">  2  5  1 -1</clus>
<clus scale="  209.459">  1  6  2 -1</clus>
<clus scale="  209.459">  1  3  2 -1</clus>
</clustering>
</event>
<event>
 7      2 +6.5488130e-01 3.06179900e+02 7.54677100e-03 9.98074700e-02
       21 -1    0    0  501  502 +0.0000000000e+00 +0.0000000000e+00 +6.0001557121e+01 6.0001557121e+01 0.0000000000e+00 0.0000e+00 1.0000e+00
        2 -1    0    0  503    0 -0.0000000000e+00 -0.0000000000e+00 -1.5933179215e+03 1.5933179215e+03 0.0000000000e+00 0.0000e+00 -1.0000e+00
       23  2    1    2    0    0 +6.5765488306e+00 +3.1040961436e+01 -3.5410247938e+02 3.6629305861e+02 8.8177358758e+01 0.0000e+00 0.0000e+00
      -15  1    3    3    0    0 -2.1532669882e+01 +1.7994858644e+01 -3.1594138960e+01 4.2294422274e+01 1.7770000000e+00 0.0000e+00 -1.0000e+00
       15  1    3    3    0    0 +2.8109218713e+01 +1.3046102793e+01 -3.2250834042e+02 3.2399863633e+02 1.7770000000e+00 0.0000e+00 1.0000e+00
       21  1    1    2  503  502 -2.0835571211e+02 -9.6116914987e+01 -2.7435190180e+02 3.5765839866e+02 0.0000000000e+00 0.0000e+00 1.0000e+00
        2  1    1    2  501    0 +2.0177916328e+02 +6.5075953550e+01 -9.0486198315e+02 9.2936802130e+02 0.0000000000e+00 0.0000e+00 -1.0000e+00
<scales pt_clust_4="13000.00000" pt_clust_5="13000.00000" pt_clust_6="229.45711" pt_clust_7="13000.00000"></scales>
<mgrwt>
<rscale>  1 0.30617988E+03</rscale>
<asrwt>  1 0.22945711E+03</asrwt>
<pdfrwt beam="1">  2       21       21 0.92310080E-02 0.99201672E-03 0.22945711E+03 0.30617988E+03</pdfrwt>
<pdfrwt beam="2">  1        2 0.24512585E+00 0.22945711E+03</pdfrwt>
<totfact> 0.16508889E+02</totfact>
</mgrwt>
<clustering>
<clus scale="   88.177">  4  5 -1 -1</clus>
<clus scale="  212.014">  4  7 -1 -1</clus>
<clus scale="  229.457">  1  6  2 -1</clus>
<clus scale="  229.457">  1  4  2 -1</clus>
</clustering>
</event>
<event>
 7      2 +6.5488130e-01 1.49836900e+02 7.54677100e-03 1.11098700e-01
        1 -1    0    0  503    0 -0.0000000000e+00 +0.0000000000e+00 +1.3823068938e+03 1.3823068938e+03 0.0000000000e+00 0.0000e+00 1.0000e+00
       21 -1    0    0  501  502 +0.0000000000e+00 -0.0000000000e+00 -1.4910053044e+02 1.4910053044e+02 0.0000000000e+00 0.0000e+00 1.0000e+00
       23  2    1    2    0    0 +5.0237256759e+01 +2.4239868174e+01 +1.4650084617e+02 1.8126426625e+02 9.1010346203e+01 0.0000e+00 0.0000e+00
      -13  1    3    3    0    0 -3.2604469361e-01 -2.5836110177e+01 +7.9233726262e+01 8.3340232011e+01 0.0000000000e+00 0.0000e+00 -1.0000e+00
       13  1    3    3    0    0 +5.0563301452e+01 +5.0075978351e+01 +6.7267119906e+01 9.7924034241e+01 0.0000000000e+00 0.0000e+00 1.0000e+00
       21  1    1    2  503  502 +1.4796875899e+02 +2.3904272300e+00 -7.8761736078e+01 1.6764211538e+02 0.0000000000e+00 0.0000e+00 1.0000e+00
        1  1    1    2  501    0 -1.9820601575e+02 -2.6630295404e+01 +1.1654672532e+03 1.1825010426e+03 0.0000000000e+00 0.0000e+00 1.0000e+00
<scales pt_clust_4="13000.00000" pt_clust_5="13000.00000" pt_clust_6="149.83687" pt_clust_7="13000.00000"></scales>
<mgrwt>
<rscale>  1 0.13765744E+03</rscale>
<asrwt>  1 0.14983687E+03</asrwt>
<pdfrwt beam="1">  1       21 0.22938544E-01 0.14983687E+03</pdfrwt>
<pdfrwt beam="2">  1        1 0.21266259E+00 0.10674379E+03</pdfrwt>
<totfact> 0.23700950E+01</totfact>
</mgrwt>
<clustering>
<clus scale="   91.010">  4  5 -1 -1</clus>
<clus scale="  106.744">  1  4  2 -1</clus>
<clus scale="  149.837">  2  6  1 -1</clus>
<clus scale="  149.837">  2  4  1 -1</clus>
</clustering>
</event>
<event>
 7      2 +6.5488130e-01 3.21283100e+02 7.54677100e-03 9.92013700e-02
       21 -1    0    0  501  502 +0.0000000000e+00 +0.0000000000e+00 +5.4545048274e+01 5.4545048274e+01 0.0000000000e+00 0.0000e+00 -1.0000e+00
        2 -1    0    0  503    0 -0.0000000000e+00 -0.0000000000e+00 -1.4339344411e+03 1.4339344411e+03 0.0000000000e+00 0.0000e+00 1.0000e+00
       23  2    1    2    0    0 -4.9233362188e+01 +5.0389789037e+01 -4.1938050048e+02 4.3577264313e+02 9.5156384588e+01 0.0000e+00 0.0000e+00
      -13  1    3    3    0    0 -5.9772363751e+01 +3.6088315644e+01 -1.4622090886e+02 1.6203597187e+02 0.0000000000e+00 0.0000e+00 1.0000e+00
       13  1    3    3    0    0 +1.0539001564e+01 +1.4301473393e+01 -2.7315959162e+02 2.7373667126e+02 0.0000000000e+00 0.0000e+00 -1.0000e+00
       21  1    1    2  503  502 -2.3764849622e+00 +1.4486359868e+02 -1.1811608254e+02 1.8692918140e+02 0.0000000000e+00 0.0000e+00 -1.0000e+00
        2  1    1    2  501    0 +5.1609847150e+01 -1.9525338772e+02 -8.4189280980e+02 8.6577766483e+02 0.0000000000e+00 0.0000e+00 1.0000e+00
<scales pt_clust_4="13000.00000" pt_clust_5="13000.00000" pt_clust_6="144.88309" pt_clust_7="13000.00000"></scales>
<mgrwt>
<rscale>  1 0.32128312E+03</rscale>
<asrwt>  1 0.14488309E+03</asrwt>
<pdfrwt beam="1">  2       21       21 0.83915463E-02 0.22056511E-02 0.14488309E+03 0.32128312E+03</pdfrwt>
<pdfrwt beam="2">  1        2 0.22060529E+00 0.14488309E+03</pdfrwt>
<totfact> 0.26459967E+02</totfact>
</mgrwt>
<clustering>
<clus scale="   95.156">  4  5 -1 -1</clus>
<clus scale="  144.883">  1  6  2 -1</clus>
<clus scale="  120.320">  4  7 -1 -1</clus>
<clus scale="  144.883">  1  4  2 -1</clus>
</clustering>
</event>
<event>
 7      2 +6.5488130e-01 2.44706400e+02 7.54677100e-03 1.02729400e-01
       21 -1    0    0  503  502 +0.0000000000e+00 +0.0000000000e+00 +1.5748373565e+02 1.5748373565e+02 0.0000000000e+00 0.0000e+00 1.0000e+00
        4 -1    0    0  502    0 -0.0000000000e+00 -0.0000000000e+00 -5.1808397954e+02 5.1808397954e+02 0.0000000000e+00 0.0000e+00 -1.0000e+00
       23  2    1    2    0    0 +7.4936240642e+01 -4.0521111489e+00 -1.1331222825e+02 1.6383427734e+02 9.1488521643e+01 0.0000e+00 0.0000e+00
      -11  1    3    3    0    0 +1.2105257044e+01 +3.7670451852e+01 -2.1556088749e+01 4.5058463722e+01 0.0000000000e+00 0.0000e+00 -1.0000e+00
       11  1    3    3    0    0 +6.2830983598e+01 -4.1722563001e+01 -9.1756139502e+01 1.1877581361e+02 0.0000000000e+00 0.0000e+00 1.0000e+00
       21  1    1    2  503  501 -1.0547531749e+02 -7.9123299339e+01 +9.2187516648e+01 1.6088529244e+02 0.0000000000e+00 0.0000e+00 1.0000e+00
        4  1    1    2  501    0 +3.0539076848e+01 +8.3175410488e+01 -3.3947553228e+02 3.5084814542e+02 0.0000000000e+00 0.0000e+00 -1.0000e+00
<scales pt_clust_4="13000.00000" pt_clust_5="13000.00000" pt_clust_6="131.85423" pt_clust_7="13000.00000"></scales>
<mgrwt>
<rscale>  1 0.24470644E+03</rscale>
<asrwt>  1 0.13185423E+03</asrwt>
<pdfrwt beam="1">  2       21       21 0.24228267E-01 0.31547974E-02 0.13185423E+03 0.24470644E+03</pdfrwt>
<pdfrwt beam="2">  1        4 0.79705229E-01 0.13185423E+03</pdfrwt>
<totfact> 0.11375444E+01</totfact>
</mgrwt>
<clustering>
<clus scale="   91.489">  4  5 -1 -1</clus>
<clus scale="   88.605">  4  7 -1 -1</clus>
<clus scale="  131.854">  1  6  2 -1</clus>
<clus scale="  131.854">  1  4  2 -1</clus>
</clustering>
</event>
<event>
 7      2 +6.5488130e-01 7.98388500e+02 7.54677100e-03 8.90107300e-02
       21 -1    0    0  503  502 +0.0000000000e+00 +0.0000000000e+00 +5.0607456214e+02 5.0607456214e+02 0.0000000000e+00 0.0000e+00 -1.0000e+00
        1 -1    0    0  502    0 -0.0000000000e+00 -0.0000000000e+00 -3.1488648767e+02 3.1488648767e+02 0.0000000000e+00 0.0000e+00 -1.0000e+00
       23  2    1    2    0    0 +2.7348391915e+02 +1.8184421270e+02 -1.2636444014e+02 3.6303441516e+02 8.9248210789e+01 0.0000e+00 0.0000e+00
      -15  1    3    3    0    0 +5.3880385217e+01 +8.1997342031e+01 -2.4344093960e+01 1.0110614547e+02 1.7770000000e+00 0.0000e+00 1.0000e+00
       15  1    3    3    0    0 +2.1960353394e+02 +9.9846870667e+01 -1.0202034618e+02 2.6192826969e+02 1.7770000000e+00 0.0000e+00 -1.0000e+00
       21  1    1    2  503  501 -9.1239258911e+01 -7.7481565964e+01 +1.0722396630e+02 1.6070150709e+02 0.0000000000e+00 0.0000e+00 -1.0000e+00
        1  1    1    2  501    0 -1.8224466024e+02 -1.0436264673e+02 +2.1032854831e+02 2.9722512756e+02 0.0000000000e+00 0.0000e+00 -1.0000e+00
<scales pt_clust_4="13000.00000" pt_clust_5="13000.00000" pt_clust_6="23.83136" pt_clust_7="13000.00000"></scales>
<mgrwt>
<rscale>  1 0.79838848E+03</rscale>
<asrwt>  1 0.23831365E+02</asrwt>
<pdfrwt beam="1">  1       21 0.77857625E-01 0.79838848E+03</pdfrwt>
<pdfrwt beam="2">  1        1 0.48444075E-01 0.79838848E+03</pdfrwt>
<totfact> 0.16408309E+01</totfact>
</mgrwt>
<clustering>
<clus scale="   23.831">  6  7 -1 -1</clus>
<clus scale="   89.248">  4  5 -1 -1</clus>
<clus scale="  329.935">  4  6 -1 -1</clus>
<clus scale="  798.388">  1  4  2 -1</clus>
</clustering>
</event>
<event>
 7      2 +6.5488130e-01 2.31481800e+02 7.54677100e-03 1.03481400e-01
        1 -1    0    0  503    0 -0.0000000000e+00 +0.0000000000e+00 +2.5941827721e+03 2.5941827721e+03 0.0000000000e+00 0.0000e+00 1.0000e+00
       21 -1    0    0  501  502 +0.0000000000e+00 -0.0000000000e+00 -3.5373790383e+01 3.5373790383e+01 0.0000000000e+00 0.0000e+00 1.0000e+00
       23  2    1    2    0    0 -1.2565451598e+02 +1.9659962258e+02 +1.5039892970e+03 1.5246562621e+03 9.0290881589e+01 0.0000e+00 0.0000e+00
      -11  1    3    3    0    0 -8.2437237134e+01 +1.8628976848e+02 +1.3017918548e+03 1.3176349301e+03 0.0000000000e+00 0.0000e+00 1.0000e+00
       11  1    3    3    0    0 -4.3217278842e+01 +1.0309854099e+01 +2.0219744218e+02 2.0702133200e+02 0.0000000000e+00 0.0000e+00 -1.0000e+00
       21  1    1    2  503  502 +4.1419049257e+01 -1.9614229276e+01 +1.7232170895e+01 4.8961243297e+01 0.0000000000e+00 0.0000e+00 1.0000e+00
        1  1    1    2  501    0 +8.4235466719e+01 -1.7698539330e+02 +1.0375875139e+03 1.0559390571e+03 0.0000000000e+00 0.0000e+00 1.0000e+00
<scales pt_clust_4="13000.00000" pt_clust_5="13000.00000" pt_clust_6="45.82855" pt_clust_7="213.14650"></scales>
<mgrwt>
<rscale>  0 0.23148181E+03</rscale>
<asrwt>  2 0.45828546E+02 0.21314650E+03</asrwt>
<pdfrwt beam="1">  3       21       21       -1 0.54421236E-02 0.29319940E-02 0.12086875E-03 0.45828546E+02 0.21314650E+03 0.23148181E+03</pdfrwt>
<pdfrwt beam="2">  1        1 0.39910489E+00 0.45828546E+02</pdfrwt>
<totfact> 0.76821132E+01</totfact>
</mgrwt>
<clustering>
<clus scale="   45.829">  2  6  1 -1</clus>
<clus scale="   90.291">  4  5 -1 -1</clus>
<clus scale="  213.146">  2  7  1 -1</clus>
<clus scale="   45.829">  2  4  1 -1</clus>
</clustering>
</event>
<event>
 6      2 +6.5488130e-01 1.76148300e+02 7.54677100e-03 1.09427400e-01
       21 -1    0    0  501  502 +0.0000000000e+00 +0.0000000000e+00 +5.7852162069e+01 5.7852162069e+01 0.0000000000e+00 0.0000e+00 -1.0000e+00
        2 -1    0    0  503    0 -0.0000000000e+00 -0.0000000000e+00 -1.9506824670e+03 1.9506824670e+03 0.0000000000e+00 0.0000e+00 -1.0000e+00
      -11  1    1    2    0    0 -3.7244018621e+00 -6.2126458588e+01 -6.8390889427e+02 6.8673498796e+02 0.0000000000e+00 0.0000e+00 -1.0000e+00
       11  1    1    2    0    0 +2.0127139096e+01 +7.3144284719e+00 -5.4459181573e+01 5.8518416329e+01 0.0000000000e+00 0.0000e+00 1.0000e+00
       21  1    1    2  503  502 -1.0319461501e+02 -1.3677275645e+02 -1.2381234943e+02 2.1138924605e+02 0.0000000000e+00 0.0000e+00 -1.0000e+00
        2  1    1    2  501    0 +8.6791877775e+01 +1.9158478656e+02 -1.0306498797e+03 1.0518919788e+03 0.0000000000e+00 0.0000e+00 -1.0000e+00
<scales pt_clust_3="13000.00000" pt_clust_4="13000.00000" pt_clust_5="176.14832" pt_clust_6="13000.00000"></scales>
<mgrwt>
<rscale>  1 0.15330801E+03</rscale>
<asrwt>  1 0.17614832E+03</asrwt>
<pdfrwt beam="1">  1       21 0.89003320E-02 0.17614832E+03</pdfrwt>
<pdfrwt beam="2">  1        2 0.30010502E+00 0.10107038E+03</pdfrwt>
<totfact> 0.13382473E+02</totfact>
</mgrwt>
<clustering>
<clus scale="   48.873">  3  4 -1 -1</clus>
<clus scale="  101.070">  2  3  1 -1</clus>
<clus scale="  176.148">  1  5  2 -1</clus>
<clus scale="  176.148">  1  3  2 -1</clus>
</clustering>
</event>
</LesHouchesEvents>
